192
step 1
 O        -0.391900       -0.796600       -0.193100
 H         0.520700       -0.884400       -0.468300
 H        -0.739300       -0.089000       -0.736100
 O         3.445700        3.016400        0.049700
 H         2.678800        2.626000        0.468900
 H         3.086100        3.550900       -0.658200
 O        -0.105300        3.506000        3.481300
 H         0.359500        2.934200        2.870300
 H        -0.664100        4.048300        2.924600
 O         3.189800        0.108900        2.560100
 H         3.769600        0.604200        3.138800
 H         2.753700       -0.518200        3.136900
 O         1.144200        1.942700        1.333600
 H         0.853300        1.641000        0.473100
 H         1.786100        1.289700        1.612500
 O         4.932900        4.846200        1.407600
 H         4.148600        4.439900        1.038900
 H         4.611400        5.359800        2.148700
 O         1.812500        4.922000        4.929400
 H         1.198500        4.415600        4.397600
 H         2.139700        4.298300        5.577600
 O         4.491500        1.397500        4.559100
 H         3.926600        1.864100        5.175100
 H         5.168700        1.001400        5.107400
 O        -0.106800       -0.310300        5.864100
 H         0.127200        0.256200       -6.200600
 H        -0.764600        0.186900        5.378000
 O         2.935500        2.695700        6.249900
 H         2.220300        2.197100       -6.155100
 H         3.308300        3.196400       -5.824500
 O         0.308200        3.065200       -3.141300
 H         1.097500        3.525600       -2.856300
 H        -0.174300        3.712000       -3.656000
 O         3.188800        0.472400       -3.310100
 H         3.554100        1.226700       -2.847800
 H         2.920500       -0.128300       -2.614800
 O         1.111300        1.283800       -5.132500
 H         0.780200        1.894500       -4.474000
 H         1.877700        0.882000       -4.723300
 O         4.208000        4.659400       -4.558700
 H         4.598800        4.231000       -3.797100
 H         4.955900        4.958400       -5.075900
 O         2.277000        4.736200       -1.654700
 H         1.473500        5.097400       -1.280400
 H         2.551000        5.383200       -2.304700
 O         5.272700        1.899600       -1.504900
 H         4.589300        2.086400       -0.861300
 H         5.648800        1.066600       -1.220700
 O        -0.033400        6.077800       -0.549400
 H         0.664900       -6.264900       -0.080900
 H        -0.506900        5.600500        0.131900
 O         3.067100       -3.640900       -0.198000
 H         2.531200       -4.296900        0.247800
 H         3.725900       -4.149900       -0.670300
 O        -0.130000       -4.078900        3.388300
 H         0.458100       -3.485400        3.855200
 H        -0.646900       -3.507200        2.820600
 O         3.377100       -6.344300        3.268400
 H         2.780400        5.840300        3.694200
 H         3.656400       -5.756300        3.970100
 O         1.555900       -5.233100        1.435500
 H         1.041500       -4.788400        2.109300
 H         2.269000       -5.653300        1.916200
 O         4.723800       -1.931600        1.357700
 H         3.975400       -1.464200        1.728700
 H         4.335500       -2.569200        0.758600
 O         1.703200       -1.699100        4.245600
 H         1.188900       -1.115800        4.803700
 H         2.450700       -1.952100        4.787300
 O         4.591900       -4.836200        5.187400
 H         5.119200       -4.366100        4.541400
 H         5.197300       -5.466100        5.578700
 O         0.244600       -6.173600       -6.180900
 H         0.713000        6.309100        5.847000
 H        -0.500000       -5.687200        6.265000
 O         3.131300       -2.881100        6.222700
 H         3.702600       -3.555700        5.855400
 H         3.701200       -2.371800       -6.001000
 O         0.074800       -2.343700       -3.332900
 H         0.538000       -2.997100       -3.857100
 H        -0.398500       -2.854500       -2.676200
 O         3.114200       -6.129300       -3.300500
 H         3.694200        6.109800       -3.815500
 H         2.790000       -5.481000       -3.925600
 O         1.636400       -4.367400       -4.554700
 H         1.035300       -4.890400       -5.085100
 H         2.238200       -3.977000       -5.188600
 O         4.811100       -1.460500       -4.658900
 H         4.108500       -1.099200       -4.118600
 H         5.437700       -1.818400       -4.030000
 O         2.320300       -1.494500       -1.694000
 H         2.626500       -2.321600       -1.321800
 H         1.605700       -1.744900       -2.279500
 O         5.267300       -4.563600       -1.811700
 H         4.815900       -5.190100       -2.377400
 H         5.862200       -5.099400       -1.287000
 O         6.387600       -0.104500        0.270500
 H         5.843100       -0.646000        0.841700
 H        -6.110100        0.608900        0.832700
 O        -3.325300        2.902300        0.387700
 H        -3.578900        3.496000       -0.319100
 H        -2.764100        2.252100       -0.034800
 O         5.925000        3.210000        3.242200
 H         5.373100        3.621700        2.577200
 H         5.348800        2.580700        3.676200
 O        -3.528000        0.002000        3.328200
 H        -3.978700        0.609600        2.741800
 H        -3.031600        0.565200        3.922000
 O        -5.357400        1.466100        2.065400
 H        -4.658800        2.020400        1.717600
 H        -5.986700        2.081100        2.442200
 O        -1.546900        4.877700        1.612200
 H        -2.266500        4.288400        1.385900
 H        -1.977300        5.665000        1.945700
 O        -4.559500        4.439500        4.782600
 H        -5.236200        4.051400        4.228000
 H        -4.164400        5.120500        4.238200
 O        -1.692900        1.553900        4.681800
 H        -0.989300        2.013800        4.224100
 H        -1.993100        2.174600        5.345800
 O         6.277600        0.028700       -6.360400
 H         5.855200       -0.481500       -5.669400
 H        -6.109500       -0.625800        5.876300
 O        -2.655400        3.346700       -6.104200
 H        -3.162700        3.716900        5.973500
 H        -3.313300        2.997900       -5.502800
 O         6.309900        3.894400       -2.962500
 H         5.862500        3.284100       -2.376200
 H        -6.203200        3.353600       -3.698300
 O        -3.186000        0.264900       -3.137200
 H        -2.644700       -0.273800       -3.714300
 H        -3.487000       -0.338700       -2.458000
 O        -4.958700        1.982500       -4.584200
 H        -5.629800        1.523500       -5.089400
 H        -4.462000        1.285400       -4.155800
 O        -1.206300        4.751200       -4.543200
 H        -0.920300        5.534700       -5.012900
 H        -1.726900        4.264800       -5.182500
 O        -4.461600        5.122100       -1.812900
 H        -5.183800        4.747300       -2.317100
 H        -3.970800        5.643500       -2.448000
 O        -1.743000        1.383500       -1.207700
 H        -1.113900        1.915400       -1.695100
 H        -2.408800        1.147200       -1.853500
 O        -6.127100       -6.216200       -0.250400
 H         6.252500        5.840100        0.181400
 H        -5.456500        6.189800       -0.808200
 O        -3.093800       -3.365000       -0.187700
 H        -2.675600       -2.978900        0.581900
 H        -3.500600       -2.624000       -0.636900
 O         5.852000       -3.581200        3.169100
 H         5.277500       -3.028900        2.638800
 H        -6.291200       -3.905500        2.553000
 O        -3.129200        6.266200        3.335600
 H        -3.804500       -5.902300        3.087900
 H        -2.782400       -6.201800        4.163700
 O        -4.669500       -4.840300        1.665600
 H        -5.112600       -5.417900        1.044100
 H        -4.119100       -4.278200        1.120500
 O        -1.752100       -2.236600        2.001400
 H        -1.060500       -1.937000        1.411500
 H        -2.066500       -1.439100        2.427300
 O        -5.195900       -1.757300        4.748300
 H        -4.917300       -0.960400        4.297200
 H        -5.658400       -2.262400        4.079600
 O        -1.869800       -5.238600        5.420100
 H        -1.510800       -4.806900        4.644900
 H        -2.509400       -4.616600        5.766700
 O         6.362800        6.393700       -5.993500
 H        -5.761900        5.968300        6.278000
 H        -5.985100       -5.678000       -5.567500
 O        -3.523900       -3.236600        6.362300
 H        -3.988300       -2.686100        5.731900
 H        -2.908000       -2.642700       -6.008400
 O        -5.821600       -2.627300       -2.992500
 H         6.391700       -3.159400       -2.455100
 H        -5.444300       -3.244700       -3.619200
 O        -3.102600       -6.251200       -3.461500
 H        -2.696400        5.845200       -3.967700
 H        -2.370000       -5.813900       -3.027700
 O        -4.896000       -4.657800       -4.729200
 H        -4.397300       -4.246700       -5.435200
 H        -4.239600       -5.124000       -4.211600
 O        -1.689800       -1.236300       -4.938300
 H        -1.046300       -1.047500       -5.621200
 H        -1.199900       -1.721500       -4.274400
 O        -4.195500       -1.300700       -1.238500
 H        -4.899700       -0.857800       -0.765000
 H        -4.644700       -1.823800       -1.902400
 O        -1.384900       -4.424900       -2.248100
 H        -0.789100       -5.013200       -1.784300
 H        -2.060300       -4.211000       -1.604400
192
step 2
 O        -0.139500       -0.466900       -0.167200
 H         0.535000       -0.696400       -0.806400
 H        -0.741300        0.102000       -0.647200
 O         2.896200        3.378100       -0.045900
 H         2.431800        2.818700        0.576600
 H         2.216300        3.686700       -0.644800
 O        -0.076300        2.848000        2.993700
 H         0.301700        2.163300        2.441800
 H        -0.542900        3.418400        2.382900
 O         3.030900       -0.344100        2.748300
 H         3.116800        0.262700        3.483600
 H         2.506500       -1.066700        3.093600
 O         1.491200        1.433500        1.356200
 H         0.982000        0.807600        0.841200
 H         2.148500        0.899100        1.801900
 O         4.811300        4.736800        1.674900
 H         4.266500        4.379200        0.973800
 H         4.202500        5.232100        2.222900
 O         1.062200        4.666500        4.610200
 H         0.704400        3.971800        4.057400
 H         1.419200        4.208100        5.370800
 O         4.277800        1.583400        4.555900
 H         3.880700        2.127500        5.236000
 H         4.925600        1.053400        5.020400
 O        -0.173400       -0.137500        6.162200
 H         0.367800        0.394400       -6.054300
 H        -0.584300        0.495000        5.573000
 O         2.757100        3.255400       -6.329300
 H         2.213000        2.611000       -5.876700
 H         3.406000        3.521500       -5.678000
 O         0.143400        2.763000       -3.260900
 H         0.374500        3.313800       -2.512900
 H        -0.156800        3.379200       -3.929000
 O         3.569300        0.025000       -3.393300
 H         4.062700        0.640200       -2.850800
 H         3.016300       -0.451100       -2.773900
 O         1.492700        1.035000       -4.913700
 H         1.068900        1.671100       -4.337600
 H         2.006400        0.482600       -4.324500
 O         4.443300        4.653800       -4.593900
 H         5.117900        4.194700       -4.093600
 H         4.921900        5.088500       -5.299600
 O         1.378200        4.890400       -1.567600
 H         0.739500        5.322200       -1.000300
 H         2.108000        5.507400       -1.620600
 O         4.691900        1.734700       -1.567100
 H         4.151600        2.284900       -1.000100
 H         5.318600        1.320900       -0.973500
 O         0.032800       -6.234200        0.243800
 H         0.850700       -6.166500        0.736400
 H        -0.496500        5.942900        0.741900
 O         3.248500       -3.052300       -0.046300
 H         2.646000       -3.665300        0.375000
 H         3.829300       -3.606600       -0.567500
 O         0.333100       -4.007300        3.124200
 H         0.879500       -3.409500        3.634300
 H        -0.294100       -3.438000        2.678400
 O         3.272100        6.221400        3.491700
 H         2.612400        5.896700        4.104500
 H         3.781900       -5.947700        4.000000
 O         2.273500       -5.201600        1.443100
 H         1.497200       -4.810300        1.843800
 H         2.616700       -5.793300        2.112700
 O         4.925400       -1.879600        1.572600
 H         4.288500       -1.350000        2.052300
 H         4.395700       -2.417000        0.983700
 O         1.440500       -1.549100        4.567100
 H         0.610200       -1.208400        4.899800
 H         1.949800       -1.749300        5.352500
 O         4.852200       -4.952200        4.946900
 H         5.367400       -4.169300        4.752400
 H         5.502700       -5.644300        5.065300
 O         0.299000       -6.059700        6.033800
 H         0.553600        5.936200        5.581100
 H        -0.524600       -5.801800        5.619900
 O         3.055300       -3.104800        6.144000
 H         3.568200       -3.839700        5.807700
 H         3.678300       -2.593700       -6.139400
 O         0.179600       -2.998200       -3.329900
 H         0.624400       -3.753600       -3.714200
 H        -0.285800       -3.353400       -2.572600
 O         3.317300       -6.233100       -2.883200
 H         3.648400        5.863300       -3.441300
 H         3.035400       -5.553500       -3.495600
 O         1.830400       -4.807600       -4.724100
 H         1.393900       -5.349900       -5.381100
 H         2.260800       -4.118100       -5.229700
 O         4.951400       -1.381900       -5.349700
 H         4.460600       -0.772900       -4.797900
 H         5.441800       -1.923900       -4.731700
 O         1.893000       -1.468700       -1.872400
 H         2.439700       -2.014200       -1.306800
 H         1.448200       -2.090500       -2.448400
 O         4.826300       -4.839000       -1.293500
 H         4.210000       -5.453500       -1.692000
 H         5.365200       -5.380000       -0.716200
 O         6.212300        0.179300        0.010600
 H         5.709400       -0.103300        0.774400
 H        -5.884300        0.718400        0.372400
 O        -3.163100        2.941700       -0.069900
 H        -3.531700        3.519500       -0.738100
 H        -2.800600        2.205500       -0.562800
 O        -6.371700        2.847300        3.277800
 H         6.022800        3.448200        2.652700
 H         5.691700        2.391400        3.685000
 O        -2.904200       -0.245600        3.245500
 H        -3.430100        0.280800        2.643300
 H        -2.641600        0.366600        3.932800
 O        -4.574600        1.510300        1.674600
 H        -4.126800        2.151000        1.122200
 H        -5.162000        2.033100        2.220400
 O        -1.569700        4.663000        1.473600
 H        -2.073000        3.946100        1.087700
 H        -2.107100        4.967100        2.205000
 O        -5.380600        4.898100        4.725900
 H        -5.778300        4.245200        4.149900
 H        -4.686600        5.292900        4.198000
 O        -1.590200        1.740900        4.785900
 H        -1.141200        2.174300        4.060100
 H        -1.732100        2.435400        5.429300
 O         6.244900        0.526200        6.070200
 H         6.022800       -0.199600       -6.146600
 H        -5.934300        0.150900        5.445800
 O        -3.267300        4.125800       -5.984300
 H        -3.882400        4.305600        6.104600
 H        -3.634300        3.363400       -5.536700
 O         6.225600        3.550600       -2.949200
 H         5.623300        2.944300       -2.517900
 H        -6.109900        3.012200       -3.589900
 O        -3.601000        0.327800       -3.619600
 H        -2.986200       -0.285300       -4.022500
 H        -4.075600       -0.196900       -2.975000
 O        -5.273900        2.262800       -5.051900
 H        -5.635500        1.636900       -5.679500
 H        -4.707000        1.736800       -4.487900
 O        -0.772800        4.971600       -4.672800
 H        -0.472300        5.682300       -5.239300
 H        -1.602300        4.691000       -5.059400
 O        -4.672700        5.147300       -1.523500
 H        -5.137900        4.514500       -2.070600
 H        -4.126600        5.639100       -2.136800
 O        -1.745300        1.327500       -1.520100
 H        -1.194200        1.779100       -2.159400
 H        -2.355200        0.813800       -2.049500
 O         6.358800       -6.191100        0.672600
 H         5.886100        5.982900        1.221100
 H        -5.922000        6.065000        0.080300
 O        -3.170300       -3.559900        0.217700
 H        -2.655900       -3.006500        0.805300
 H        -3.642800       -2.942600       -0.340800
 O        -6.153300       -3.366800        3.177600
 H         6.060800       -2.966100        2.535400
 H        -5.633900       -3.991700        2.671700
 O        -3.235500        5.895800        3.674300
 H        -3.546700       -6.313200        2.988700
 H        -2.725700       -6.344800        4.260300
 O        -4.275900       -5.374000        1.803900
 H        -5.123700       -5.614600        1.430200
 H        -3.939900       -4.694900        1.218900
 O        -1.427200       -1.984500        1.717300
 H        -1.092600       -1.527200        0.945900
 H        -1.774100       -1.289400        2.276600
 O        -5.034400       -1.174600        4.585800
 H        -4.380400       -0.731900        4.044900
 H        -5.350100       -1.894600        4.039600
 O        -1.958200       -5.008700        5.013300
 H        -1.445800       -4.903300        4.211700
 H        -2.257900       -4.124600        5.224600
 O         6.346700        6.015600       -5.809800
 H        -5.977400        5.625200        6.257200
 H        -5.876500       -6.089900       -5.491900
 O        -3.066800       -2.875700        6.333100
 H        -3.438300       -2.216800        5.746500
 H        -2.306900       -2.446300       -6.074100
 O         6.190000       -2.719400       -3.292200
 H         5.832900       -3.373000       -2.690900
 H        -5.897100       -3.172000       -3.742900
 O        -2.737500       -5.914400       -3.142300
 H        -2.144100        6.391000       -3.707500
 H        -2.167300       -5.313100       -2.663400
 O        -4.825900       -4.400500       -4.543000
 H        -4.121300       -4.018000       -5.066000
 H        -4.456800       -5.215400       -4.202600
 O        -1.655100       -1.580500       -4.765500
 H        -1.141800       -0.981200       -5.307200
 H        -1.002700       -2.067900       -4.262400
 O        -4.754300       -1.307300       -1.582500
 H        -5.310000       -0.923300       -0.904300
 H        -5.355700       -1.816900       -2.125500
 O        -1.196100       -4.410800       -1.427300
 H        -0.804400       -4.976100       -0.761500
 H        -2.044600       -4.161100       -1.061200
192
step 3
 O        -0.080800       -0.530600       -0.404400
 H         0.609800       -1.061600       -0.801300
 H        -0.167000        0.224600       -0.986100
 O         2.757600        2.585500       -0.297300
 H         2.208100        1.932700        0.136200
 H         2.144500        3.261000       -0.587200
 O         0.123500        2.637400        3.164200
 H         0.688700        2.057300        2.654000
 H        -0.259100        3.229800        2.516900
 O         3.314200       -0.417500        3.770100
 H         3.609300        0.392200        4.186800
 H         2.652700       -0.767300        4.367000
 O         1.764700        0.725500        1.826000
 H         1.453000        0.057400        1.215500
 H         2.462800        0.293700        2.318400
 O         4.383200        4.054400        1.401000
 H         3.778800        3.645600        0.781400
 H         4.035000        4.936800        1.529100
 O         1.929200        4.298700        4.636200
 H         1.316100        3.642400        4.305300
 H         2.437800        3.837400        5.303100
 O         4.751100        1.617400        4.870800
 H         4.099900        2.038600        5.431900
 H         5.309700        1.129500        5.475900
 O        -0.256200        0.404600        6.306200
 H         0.128600        1.104000       -5.965600
 H        -1.047300        0.793400        5.932900
 O         3.218000        3.032500       -6.198200
 H         2.356400        2.903900       -5.801400
 H         3.634900        3.701600       -5.655300
 O        -0.516000        3.979600       -3.200700
 H         0.241600        4.439400       -2.839000
 H        -0.912300        4.607900       -3.804500
 O         3.292800        0.190500       -3.431000
 H         3.607600        0.727200       -2.703600
 H         2.661100       -0.407800       -3.032000
 O         0.929100        1.952600       -4.774000
 H         0.466800        2.597000       -4.238100
 H         1.712900        1.737800       -4.268200
 O         4.516300        5.098000       -4.598100
 H         5.152200        4.610600       -4.074300
 H         5.049600        5.635600       -5.183600
 O         1.548000        4.724100       -1.086100
 H         1.094600        5.288900       -0.460300
 H         2.180100        5.300600       -1.515500
 O         5.277200        1.269900       -1.448400
 H         4.558800        1.499900       -0.859000
 H         5.795900        0.632700       -0.957400
 O         0.109600       -6.312700        0.318700
 H         0.501000       -5.561700        0.764700
 H        -0.311100        5.985900        1.017100
 O         3.474800       -2.915500       -0.241500
 H         2.936700       -3.455200        0.337700
 H         4.036500       -3.541000       -0.699100
 O         0.106700       -3.551100        3.364000
 H         0.638100       -2.907600        3.832800
 H        -0.350400       -3.042600        2.694100
 O         3.242200        6.316200        3.035900
 H         2.744200        5.684700        3.554800
 H         3.830000       -6.066300        3.665400
 O         1.790500       -4.558600        1.652200
 H         1.285900       -4.094000        2.319900
 H         2.281700       -5.219900        2.139700
 O         4.803700       -1.753900        1.875800
 H         4.177700       -1.174300        2.309800
 H         4.313100       -2.134800        1.147500
 O         1.282100       -1.672700        5.132200
 H         0.861600       -0.924200        5.555500
 H         1.654200       -2.178900        5.854400
 O         4.698100       -4.846800        4.685700
 H         5.308500       -4.213900        4.307300
 H         5.194200       -5.268800        5.387100
 O         0.049200       -6.374600        5.909800
 H         0.361600        5.906000        5.168900
 H        -0.584200       -5.767500        5.527200
 O         3.464400       -3.225300       -6.001600
 H         3.784900       -3.666300        6.011700
 H         4.192900       -2.669900       -5.724100
 O         0.335900       -3.217700       -2.960300
 H         0.572100       -3.905000       -3.583200
 H        -0.183400       -3.666600       -2.293200
 O         3.105900        6.361000       -2.880400
 H         3.739200        6.075800       -3.539100
 H         2.300800       -6.281900       -3.373700
 O         1.581400       -4.859200       -4.693900
 H         1.170300       -5.365800       -5.394300
 H         2.314800       -4.413900       -5.118300
 O         5.083500       -1.366600       -4.932600
 H         4.639100       -0.728300       -4.374600
 H         5.629000       -1.872900       -4.330600
 O         1.922300       -1.479800       -1.845100
 H         2.542100       -1.843200       -1.212500
 H         1.390400       -2.227800       -2.116800
 O         5.083700       -4.959100       -1.723500
 H         4.455100       -5.561600       -2.121100
 H         5.612700       -5.510200       -1.146800
 O        -6.208300       -0.504500        0.084100
 H         6.013900       -1.006200        0.659100
 H        -5.766200        0.112500        0.667200
 O        -2.991400        2.840800        0.567100
 H        -3.465900        3.543200        0.122500
 H        -2.404500        2.487200       -0.101200
 O         6.281600        2.893000        3.273800
 H         5.833200        3.061900        2.445100
 H         5.629900        2.444200        3.812200
 O        -2.951700       -0.060000        2.447500
 H        -3.725800        0.314900        2.027600
 H        -2.446200        0.698400        2.739900
 O        -5.053600        1.360000        1.701300
 H        -4.547200        2.020300        1.228300
 H        -5.551400        1.858200        2.349600
 O        -1.337200        4.658700        1.925100
 H        -1.829800        4.056500        1.367500
 H        -2.001800        5.236500        2.300300
 O        -5.335000        5.079100        4.469300
 H        -5.647700        4.181700        4.354700
 H        -4.673600        5.191800        3.786600
 O        -2.018300        1.615500        4.654900
 H        -1.181900        1.687900        4.195000
 H        -2.285800        2.521300        4.810300
 O        -6.369300        0.422800       -6.282600
 H         5.774200       -0.244500       -6.082700
 H        -5.753500       -0.015000        5.929700
 O        -3.436300        3.888300        6.117300
 H        -4.067000        4.185700        5.461700
 H        -3.959200        3.387900       -6.056200
 O         6.301200        3.333100       -2.752000
 H         5.978400        2.557600       -2.293100
 H        -6.060500        2.986900       -3.529400
 O        -3.232000        0.681500       -3.455500
 H        -2.596400        0.131800       -3.913900
 H        -3.722900        0.072100       -2.904300
 O        -4.960000        2.285400       -5.086800
 H        -5.515400        1.651400       -5.540500
 H        -4.261500        1.758300       -4.698900
 O        -1.716200        5.366300       -5.159100
 H        -1.173200        5.691200       -5.877300
 H        -2.275500        4.702400       -5.562500
 O        -4.645400        4.551900       -0.898500
 H        -5.135000        3.992300       -1.501200
 H        -4.352000        5.286400       -1.437600
 O        -1.487500        1.799000       -1.787200
 H        -0.994100        2.416500       -2.327100
 H        -2.132000        1.419600       -2.384600
 O         6.332200        6.318800       -0.168300
 H         5.678500        5.963800        0.434000
 H        -6.004400        5.549800       -0.500100
 O        -3.131900       -3.197800       -0.253700
 H        -2.505000       -2.672000        0.243100
 H        -3.465100       -2.602800       -0.925400
 O        -6.025000       -3.294100        3.387600
 H         6.132100       -2.746500        2.937000
 H        -5.593900       -3.783800        2.687200
 O        -3.293700        6.347600        2.970600
 H        -3.791100       -5.963600        2.314800
 H        -2.880400       -5.778200        3.509800
 O        -4.541000       -5.042600        1.219100
 H        -5.139000       -5.552100        0.672400
 H        -4.145800       -4.410900        0.618300
 O        -1.328200       -1.879800        1.381800
 H        -0.843400       -1.418300        0.697500
 H        -1.915100       -1.218200        1.747900
 O        -4.763400       -1.291800        5.130800
 H        -4.179500       -0.877200        4.495700
 H        -5.169200       -2.012500        4.649000
 O        -1.826500       -4.817500        4.918300
 H        -1.364600       -4.179700        4.374200
 H        -2.432800       -4.292700        5.441000
 O         6.099700       -6.203500       -6.346000
 H        -6.254000        5.972600        5.881400
 H        -5.994700       -5.775000       -5.861600
 O        -3.081000       -2.743900       -6.193100
 H        -3.507400       -2.056000        6.096000
 H        -2.483700       -2.274900       -5.610500
 O         6.301800       -3.059400       -3.223900
 H         5.711800       -3.717200       -2.855600
 H        -6.067500       -3.504900       -3.953400
 O        -3.533700        6.323200       -3.408300
 H        -3.250600        5.703700       -4.080800
 H        -2.725100       -6.059800       -3.110600
 O        -4.904700       -4.485900       -5.109100
 H        -4.528600       -3.666100       -5.429500
 H        -4.233700       -4.847500       -4.529900
 O        -1.385200       -1.335400       -4.416100
 H        -0.978000       -0.711800       -5.017400
 H        -0.649200       -1.753500       -3.969300
 O        -4.589600       -1.419500       -2.040500
 H        -5.086000       -1.060000       -1.305300
 H        -5.106900       -2.168800       -2.335800
 O        -1.458300       -4.909300       -1.594000
 H        -0.968800       -5.390400       -0.926800
 H        -2.033000       -4.327200       -1.096800
192
step 4