     192
cluster   1 size    69 pop  69.00% tot_pop  69.00% frame    24  step 24
 O    -0.488   0.334   0.174
 H     0.139  -0.160  -0.354
 H    -0.977   0.857  -0.461
 O     2.901   3.778  -0.627
 H     2.394   3.488   0.131
 H     2.421   4.537  -0.960
 O     0.082   3.123   3.330
 H     0.653   2.598   2.769
 H    -0.432   3.652   2.721
 O     3.253   0.169   2.654
 H     3.796   0.629   3.294
 H     2.768  -0.475   3.169
 O     1.711   2.076   1.227
 H     0.940   1.649   0.855
 H     2.191   1.369   1.660
 O     4.734   4.588   1.157
 H     4.183   4.309   0.426
 H     4.157   5.123   1.702
 O     1.211   4.861   5.194
 H     0.700   4.435   4.505
 H     1.616   4.139   5.673
 O     5.040   1.476   4.979
 H     4.492   2.015   5.550
 H     5.245   0.703   5.504
 O     0.392  -0.493   6.219
 H     0.888   0.054  -5.972
 H    -0.018   0.130   5.617
 O     3.139   2.931   6.240
 H     2.588   2.363  -6.020
 H     3.408   3.635  -5.970
 O     0.183   3.121  -3.500
 H     0.782   3.780  -3.151
 H    -0.430   3.617  -4.043
 O     2.920  -0.178  -2.967
 H     3.466   0.496  -2.564
 H     2.236  -0.351  -2.321
 O     1.791   1.325  -4.849
 H     1.273   2.071  -4.545
 H     2.152   0.942  -4.050
 O     4.636   5.072  -4.892
 H     5.214   4.612  -4.282
 H     5.229   5.475  -5.526
 O     1.468   5.448  -1.932
 H     0.886   5.880  -1.306
 H     2.017   6.153  -2.275
 O     4.307   1.694  -1.837
 H     3.717   2.327  -1.426
 H     4.931   1.467  -1.149
 O    -0.103  -6.191   0.070
 H     0.468  -5.721   0.679
 H    -0.318   5.794   0.524
 O     3.151  -2.899   0.381
 H     2.685  -3.514   0.948
 H     3.732  -3.449  -0.144
 O     0.044  -3.231   3.087
 H     0.670  -2.769   3.644
 H    -0.411  -2.537   2.610
 O     3.258   5.726   3.111
 H     2.618   5.203   3.593
 H     3.906   5.978   3.768
 O     1.799  -4.927   1.697
 H     1.228  -4.468   2.313
 H     2.431  -5.385   2.252
 O     5.130  -1.597   1.712
 H     4.656  -0.874   2.123
 H     4.536  -1.917   1.032
 O     2.017  -1.795   4.359
 H     1.523  -1.341   5.042
 H     2.570  -2.415   4.834
 O     4.832  -5.208   5.155
 H     5.220  -4.677   4.460
 H     5.561  -5.722   5.501
 O    -0.128  -6.062  -6.163
 H     0.373   6.103   6.125
 H    -0.504  -5.471   5.985
 O     3.260  -3.405   6.327
 H     3.859  -3.972   5.841
 H     3.830  -2.884  -5.907
 O    -0.009  -3.004  -2.842
 H     0.482  -3.407  -3.558
 H    -0.544  -3.715  -2.489
 O     3.519  -5.756  -3.148
 H     3.732   6.270  -3.669
 H     2.863  -5.290  -3.667
 O     1.451  -4.365  -4.715
 H     0.837  -4.782  -5.318
 H     2.051  -3.879  -5.280
 O     4.609  -1.458  -4.971
 H     4.208  -1.048  -4.205
 H     5.044  -2.238  -4.626
 O     1.293  -1.302  -0.781
 H     1.801  -1.795  -0.136
 H     0.826  -1.971  -1.280
 O     4.738  -4.555  -1.142
 H     4.263  -4.966  -1.864
 H     5.279  -5.257  -0.781
 O     6.208   0.241  -0.531
 H     5.707  -0.280   0.096
 H    -5.940   0.696   0.002
 O    -3.194   3.176  -0.059
 H    -3.673   3.862  -0.523
 H    -2.760   2.676  -0.750
 O    -6.061   2.794   3.415
 H     6.075   3.175   2.840
 H     6.241   2.421   4.142
 O    -3.205  -0.131   3.430
 H    -3.522   0.710   3.100
 H    -2.508   0.098   4.044
 O    -4.617   1.413   1.571
 H    -4.168   2.129   1.123
 H    -5.177   1.846   2.216
 O    -1.388   4.521   1.428
 H    -2.026   3.965   0.980
 H    -1.909   5.234   1.796
 O    -4.371   4.710   4.686
 H    -4.988   4.230   4.134
 H    -3.798   5.163   4.068
 O    -1.500   1.367   4.923
 H    -1.017   2.142   4.634
 H    -2.099   1.695   5.594
 O    -5.960  -0.212  -6.074
 H     6.389  -0.815  -5.482
 H    -5.448  -0.780   6.150
 O    -2.556   3.133  -6.115
 H    -3.079   3.632   6.057
 H    -3.196   2.782  -5.496
 O     5.950   3.300  -3.279
 H     5.210   2.847  -2.874
 H    -6.348   2.605  -3.706
 O    -3.254  -0.084  -3.307
 H    -2.788  -0.832  -3.679
 H    -4.035  -0.464  -2.903
 O    -4.812   1.825  -4.596
 H    -5.130   1.108  -5.145
 H    -4.071   1.451  -4.119
 O    -1.958   5.071  -4.300
 H    -1.243   5.618  -4.625
 H    -2.302   4.638  -5.081
 O    -4.925   4.690  -1.631
 H    -5.592   4.230  -2.140
 H    -4.517   5.290  -2.256
 O    -1.790   1.635  -1.779
 H    -1.178   2.068  -2.373
 H    -2.207   0.960  -2.315
 O    -6.298  -6.327  -0.167
 H     5.786   6.059   0.315
 H    -5.969   5.785  -0.745
 O    -3.125  -3.232  -0.088
 H    -2.815  -2.648   0.604
 H    -3.529  -2.649  -0.731
 O     6.305  -3.236   3.401
 H     5.895  -2.544   2.883
 H    -6.003  -3.754   2.764
 O    -3.014   6.330   2.904
 H    -3.663  -5.931   2.453
 H    -2.608  -5.878   3.537
 O    -4.691  -4.906   1.642
 H    -5.234  -5.523   1.152
 H    -4.371  -4.291   0.982
 O    -1.643  -1.686   1.816
 H    -1.062  -1.055   1.391
 H    -2.301  -1.148   2.256
 O    -4.744  -1.863   5.082
 H    -4.400  -1.185   4.500
 H    -5.418  -2.304   4.564
 O    -1.591  -4.825   4.589
 H    -1.148  -4.207   4.008
 H    -1.989  -4.276   5.265
 O    -6.167   6.072   6.182
 H    -5.579   5.435   5.776
 H    -5.597  -6.194  -6.065
 O    -3.155  -3.504   6.292
 H    -3.721  -2.846   5.889
 H    -2.687  -3.030  -5.821
 O     6.027  -3.329  -3.444
 H     5.974  -3.734  -2.578
 H    -6.205  -3.912  -3.947
 O    -3.505  -6.046  -2.937
 H    -2.889   6.051  -3.144
 H    -3.004  -5.444  -2.385
 O    -4.919  -4.957  -4.904
 H    -4.480  -4.317  -5.465
 H    -4.266  -5.183  -4.242
 O    -1.520  -1.826  -4.730
 H    -0.876  -1.333  -5.239
 H    -0.995  -2.374  -4.147
 O    -4.970  -1.507  -1.858
 H    -5.366  -0.767  -1.399
 H    -5.574  -1.695  -2.576
 O    -1.682  -4.846  -1.534
 H    -1.038  -5.299  -0.990
 H    -2.121  -4.243  -0.935
     192
cluster   2 size    31 pop  31.00% tot_pop 100.00% frame    77  step 77
 O     0.110  -0.744   0.554
 H     0.750  -1.164  -0.019
 H    -0.287  -0.062   0.012
 O     6.198   4.007   2.158
 H     6.211   3.704   3.066
 H     5.643   4.787   2.173
 O    -0.885   2.997   2.831
 H    -1.256   2.374   2.205
 H    -1.363   3.811   2.671
 O     1.946   0.380   2.556
 H     1.943  -0.230   3.293
 H     1.244   0.069   1.983
 O     3.025   3.432  -0.102
 H     2.358   4.051  -0.400
 H     2.678   3.079   0.717
 O     4.023   5.858   1.405
 H     3.220   5.981   1.912
 H     3.772   5.266   0.697
 O     1.751   3.199   2.240
 H     0.826   3.405   2.370
 H     1.852   2.315   2.595
 O     5.700   3.394   4.916
 H     5.596   3.948   5.689
 H     5.835   2.514   5.267
 O     0.284   0.120  -6.277
 H     0.964   0.624  -5.829
 H    -0.187   0.768   5.999
 O     2.936   4.297  -4.634
 H     3.868   4.326  -4.847
 H     2.683   3.386  -4.784
 O    -0.294   2.930  -2.726
 H     0.085   3.574  -2.127
 H    -0.787   3.453  -3.359
 O     3.484  -0.240  -2.568
 H     4.069   0.461  -2.281
 H     3.508  -0.880  -1.857
 O     1.820   1.720  -4.487
 H     1.214   2.074  -3.836
 H     2.337   1.073  -4.008
 O     5.414   4.519  -5.300
 H     5.991   4.101  -4.660
 H     5.730   5.421  -5.354
 O     1.295   5.048  -1.242
 H     0.711   5.541  -0.666
 H     1.580   5.685  -1.897
 O     4.966   1.979  -1.422
 H     4.292   2.521  -1.011
 H     5.303   1.434  -0.710
 O     0.041  -6.046   0.558
 H     0.569  -5.795   1.316
 H    -0.500   6.029   0.871
 O     3.283  -4.367  -0.043
 H     3.194  -4.961   0.703
 H     3.851  -4.835  -0.655
 O    -0.013  -3.160   3.003
 H     0.527  -2.445   3.338
 H    -0.734  -2.724   2.547
 O     1.571   5.824   6.269
 H     2.088   5.313  -5.909
 H     1.827   5.485   5.410
 O     1.620  -5.383   2.709
 H     1.004  -4.672   2.885
 H     2.270  -5.317   3.409
 O     4.290  -2.187   1.355
 H     3.436  -1.844   1.615
 H     4.088  -2.927   0.783
 O     1.525  -1.565   4.313
 H     0.823  -1.371   4.933
 H     2.221  -1.945   4.849
 O     4.912  -4.701   4.487
 H     5.634  -4.216   4.088
 H     5.290  -5.086   5.278
 O    -0.998   5.434   6.386
 H    -0.050   5.475  -6.292
 H    -1.180   6.085   5.708
 O     3.500  -2.758   5.715
 H     4.101  -3.377   5.299
 H     4.062  -2.208   6.261
 O     0.384  -2.718  -3.316
 H     0.756  -3.292  -3.986
 H     0.137  -3.309  -2.605
 O     2.819  -6.378  -3.078
 H     2.853   5.589  -3.549
 H     2.527  -5.744  -3.732
 O     2.035  -4.710  -5.211
 H     1.940  -5.479  -5.773
 H     2.638  -4.138  -5.686
 O     5.489  -1.506  -5.048
 H     5.110  -0.976  -4.347
 H     5.563  -2.383  -4.672
 O     1.922  -1.954  -1.073
 H     2.059  -2.860  -0.794
 H     1.507  -2.028  -1.933
 O     4.993  -5.456  -1.711
 H     4.289  -5.999  -2.066
 H     5.670  -6.081  -1.451
 O     6.322  -0.508  -0.045
 H     5.621  -0.966   0.420
 H    -6.254   0.228   0.525
 O    -3.433   3.079  -0.231
 H    -3.467   3.508  -1.086
 H    -2.764   2.401  -0.329
 O     2.917   4.389   4.287
 H     2.499   3.849   3.616
 H     3.512   3.791   4.740
 O    -3.799   0.640   2.759
 H    -4.542   0.959   2.247
 H    -3.781   1.202   3.534
 O    -5.627   1.873   0.869
 H    -4.751   2.137   0.586
 H    -5.990   2.654   1.286
 O    -2.265   5.023   1.531
 H    -2.618   4.494   0.815
 H    -3.037   5.337   2.001
 O    -3.549   5.322   5.364
 H    -3.359   5.707   4.508
 H    -2.698   5.274   5.800
 O    -1.113   1.923   5.442
 H    -1.020   2.512   4.693
 H    -2.054   1.902   5.615
 O    -6.389   0.391   6.073
 H     5.914  -0.205  -6.167
 H    -5.530  -0.022   5.986
 O    -3.982   2.078   5.232
 H    -4.137   3.020   5.164
 H    -4.156   1.872   6.151
 O    -6.110   3.214  -3.317
 H     6.275   2.639  -2.675
 H    -5.791   2.622  -3.998
 O    -3.291  -0.189  -2.801
 H    -2.596  -0.474  -3.394
 H    -3.890  -0.935  -2.759
 O    -4.734   1.456  -4.971
 H    -5.300   0.844  -5.442
 H    -4.374   0.943  -4.248
 O    -1.989   3.608  -4.654
 H    -1.750   4.289  -5.284
 H    -1.843   2.786  -5.122
 O    -4.004   4.721  -2.325
 H    -4.590   4.069  -2.708
 H    -3.411   4.959  -3.038
 O    -1.317   1.252  -0.970
 H    -0.878   1.740  -1.666
 H    -1.870   0.621  -1.430
 O    -5.935   5.397  -0.642
 H    -6.092   4.761   0.056
 H    -5.363   4.941  -1.259
 O    -2.732  -2.932  -0.815
 H    -2.708  -2.549   0.062
 H    -3.473  -2.504  -1.244
 O    -6.315  -3.026   2.935
 H     5.873  -2.609   2.328
 H    -5.858  -3.679   2.404
 O    -4.508   5.645   2.868
 H    -5.238   5.059   2.667
 H    -4.763  -6.316   2.485
 O    -5.149  -4.794   0.999
 H    -5.931  -5.196   0.620
 H    -4.428  -5.112   0.456
 O    -2.185  -1.774   1.585
 H    -1.630  -1.243   1.014
 H    -2.736  -1.138   2.042
 O    -4.257  -1.500   4.798
 H    -4.236  -0.642   4.375
 H    -4.689  -2.070   4.163
 O    -1.765  -5.109   4.783
 H    -1.367  -4.536   4.128
 H    -2.229  -4.514   5.373
 O    -5.901  -6.059   6.163
 H    -5.264   6.145   5.767
 H    -5.426  -5.644  -5.918
 O    -3.133  -2.801  -5.818
 H    -2.498  -2.198  -5.431
 H    -3.346  -2.412   6.133
 O     6.281  -3.800  -3.184
 H     5.674  -4.330  -2.668
 H    -5.960  -4.437  -3.628
 O    -2.134  -6.306  -3.635
 H    -1.733  -6.297  -4.504
 H    -1.587  -5.719  -3.113
 O    -4.520  -5.030  -4.618
 H    -3.830  -5.546  -4.202
 H    -4.069  -4.257  -4.959
 O    -1.415  -0.644  -4.366
 H    -1.023  -0.068  -5.022
 H    -0.689  -1.186  -4.057
 O    -5.115  -1.832  -1.897
 H    -5.542  -1.440  -1.136
 H    -5.771  -2.426  -2.262
 O    -0.806  -4.790  -1.776
 H    -0.530  -5.099  -0.913
 H    -1.541  -4.203  -1.598
