     192
member     1 dist   0.000 frame    24  step 24
 O    -0.488   0.334   0.174
 H     0.139  -0.160  -0.354
 H    -0.977   0.857  -0.461
 O     2.901   3.778  -0.627
 H     2.394   3.488   0.131
 H     2.421   4.537  -0.960
 O     0.082   3.123   3.330
 H     0.653   2.598   2.769
 H    -0.432   3.652   2.721
 O     3.253   0.169   2.654
 H     3.796   0.629   3.294
 H     2.768  -0.475   3.169
 O     1.711   2.076   1.227
 H     0.940   1.649   0.855
 H     2.191   1.369   1.660
 O     4.734   4.588   1.157
 H     4.183   4.309   0.426
 H     4.157   5.123   1.702
 O     1.211   4.861   5.194
 H     0.700   4.435   4.505
 H     1.616   4.139   5.673
 O     5.040   1.476   4.979
 H     4.492   2.015   5.550
 H     5.245   0.703   5.504
 O     0.392  -0.493   6.219
 H     0.888   0.054  -5.972
 H    -0.018   0.130   5.617
 O     3.139   2.931   6.240
 H     2.588   2.363  -6.020
 H     3.408   3.635  -5.970
 O     0.183   3.121  -3.500
 H     0.782   3.780  -3.151
 H    -0.430   3.617  -4.043
 O     2.920  -0.178  -2.967
 H     3.466   0.496  -2.564
 H     2.236  -0.351  -2.321
 O     1.791   1.325  -4.849
 H     1.273   2.071  -4.545
 H     2.152   0.942  -4.050
 O     4.636   5.072  -4.892
 H     5.214   4.612  -4.282
 H     5.229   5.475  -5.526
 O     1.468   5.448  -1.932
 H     0.886   5.880  -1.306
 H     2.017   6.153  -2.275
 O     4.307   1.694  -1.837
 H     3.717   2.327  -1.426
 H     4.931   1.467  -1.149
 O    -0.103  -6.191   0.070
 H     0.468  -5.721   0.679
 H    -0.318   5.794   0.524
 O     3.151  -2.899   0.381
 H     2.685  -3.514   0.948
 H     3.732  -3.449  -0.144
 O     0.044  -3.231   3.087
 H     0.670  -2.769   3.644
 H    -0.411  -2.537   2.610
 O     3.258   5.726   3.111
 H     2.618   5.203   3.593
 H     3.906   5.978   3.768
 O     1.799  -4.927   1.697
 H     1.228  -4.468   2.313
 H     2.431  -5.385   2.252
 O     5.130  -1.597   1.712
 H     4.656  -0.874   2.123
 H     4.536  -1.917   1.032
 O     2.017  -1.795   4.359
 H     1.523  -1.341   5.042
 H     2.570  -2.415   4.834
 O     4.832  -5.208   5.155
 H     5.220  -4.677   4.460
 H     5.561  -5.722   5.501
 O    -0.128  -6.062  -6.163
 H     0.373   6.103   6.125
 H    -0.504  -5.471   5.985
 O     3.260  -3.405   6.327
 H     3.859  -3.972   5.841
 H     3.830  -2.884  -5.907
 O    -0.009  -3.004  -2.842
 H     0.482  -3.407  -3.558
 H    -0.544  -3.715  -2.489
 O     3.519  -5.756  -3.148
 H     3.732   6.270  -3.669
 H     2.863  -5.290  -3.667
 O     1.451  -4.365  -4.715
 H     0.837  -4.782  -5.318
 H     2.051  -3.879  -5.280
 O     4.609  -1.458  -4.971
 H     4.208  -1.048  -4.205
 H     5.044  -2.238  -4.626
 O     1.293  -1.302  -0.781
 H     1.801  -1.795  -0.136
 H     0.826  -1.971  -1.280
 O     4.738  -4.555  -1.142
 H     4.263  -4.966  -1.864
 H     5.279  -5.257  -0.781
 O     6.208   0.241  -0.531
 H     5.707  -0.280   0.096
 H    -5.940   0.696   0.002
 O    -3.194   3.176  -0.059
 H    -3.673   3.862  -0.523
 H    -2.760   2.676  -0.750
 O    -6.061   2.794   3.415
 H     6.075   3.175   2.840
 H     6.241   2.421   4.142
 O    -3.205  -0.131   3.430
 H    -3.522   0.710   3.100
 H    -2.508   0.098   4.044
 O    -4.617   1.413   1.571
 H    -4.168   2.129   1.123
 H    -5.177   1.846   2.216
 O    -1.388   4.521   1.428
 H    -2.026   3.965   0.980
 H    -1.909   5.234   1.796
 O    -4.371   4.710   4.686
 H    -4.988   4.230   4.134
 H    -3.798   5.163   4.068
 O    -1.500   1.367   4.923
 H    -1.017   2.142   4.634
 H    -2.099   1.695   5.594
 O    -5.960  -0.212  -6.074
 H     6.389  -0.815  -5.482
 H    -5.448  -0.780   6.150
 O    -2.556   3.133  -6.115
 H    -3.079   3.632   6.057
 H    -3.196   2.782  -5.496
 O     5.950   3.300  -3.279
 H     5.210   2.847  -2.874
 H    -6.348   2.605  -3.706
 O    -3.254  -0.084  -3.307
 H    -2.788  -0.832  -3.679
 H    -4.035  -0.464  -2.903
 O    -4.812   1.825  -4.596
 H    -5.130   1.108  -5.145
 H    -4.071   1.451  -4.119
 O    -1.958   5.071  -4.300
 H    -1.243   5.618  -4.625
 H    -2.302   4.638  -5.081
 O    -4.925   4.690  -1.631
 H    -5.592   4.230  -2.140
 H    -4.517   5.290  -2.256
 O    -1.790   1.635  -1.779
 H    -1.178   2.068  -2.373
 H    -2.207   0.960  -2.315
 O    -6.298  -6.327  -0.167
 H     5.786   6.059   0.315
 H    -5.969   5.785  -0.745
 O    -3.125  -3.232  -0.088
 H    -2.815  -2.648   0.604
 H    -3.529  -2.649  -0.731
 O     6.305  -3.236   3.401
 H     5.895  -2.544   2.883
 H    -6.003  -3.754   2.764
 O    -3.014   6.330   2.904
 H    -3.663  -5.931   2.453
 H    -2.608  -5.878   3.537
 O    -4.691  -4.906   1.642
 H    -5.234  -5.523   1.152
 H    -4.371  -4.291   0.982
 O    -1.643  -1.686   1.816
 H    -1.062  -1.055   1.391
 H    -2.301  -1.148   2.256
 O    -4.744  -1.863   5.082
 H    -4.400  -1.185   4.500
 H    -5.418  -2.304   4.564
 O    -1.591  -4.825   4.589
 H    -1.148  -4.207   4.008
 H    -1.989  -4.276   5.265
 O    -6.167   6.072   6.182
 H    -5.579   5.435   5.776
 H    -5.597  -6.194  -6.065
 O    -3.155  -3.504   6.292
 H    -3.721  -2.846   5.889
 H    -2.687  -3.030  -5.821
 O     6.027  -3.329  -3.444
 H     5.974  -3.734  -2.578
 H    -6.205  -3.912  -3.947
 O    -3.505  -6.046  -2.937
 H    -2.889   6.051  -3.144
 H    -3.004  -5.444  -2.385
 O    -4.919  -4.957  -4.904
 H    -4.480  -4.317  -5.465
 H    -4.266  -5.183  -4.242
 O    -1.520  -1.826  -4.730
 H    -0.876  -1.333  -5.239
 H    -0.995  -2.374  -4.147
 O    -4.970  -1.507  -1.858
 H    -5.366  -0.767  -1.399
 H    -5.574  -1.695  -2.576
 O    -1.682  -4.846  -1.534
 H    -1.038  -5.299  -0.990
 H    -2.121  -4.243  -0.935
     192
member     2 dist   0.265 frame    66  step 66
 O    -0.357  -0.451  -0.084
 H     0.136  -0.949  -0.736
 H    -0.771   0.254  -0.583
 O     3.560   2.804   0.353
 H     2.844   2.420   0.858
 H     3.129   3.237  -0.384
 O    -0.218   3.409   3.029
 H     0.370   2.872   2.497
 H    -0.500   4.110   2.440
 O     3.146   0.517   2.930
 H     3.664   0.901   3.637
 H     2.636  -0.174   3.354
 O     1.256   1.494   1.327
 H     1.079   0.838   0.653
 H     1.946   1.105   1.865
 O     4.949   4.695   1.981
 H     4.326   4.238   1.417
 H     4.433   5.382   2.402
 O     1.807   4.612   4.679
 H     1.393   3.874   4.231
 H     2.387   4.206   5.323
 O     4.624   1.614   4.847
 H     4.266   2.178   5.533
 H     5.168   0.981   5.315
 O     0.160   0.035   5.797
 H     0.618   0.513  -6.311
 H    -0.477   0.662   5.454
 O     3.299   3.101  -6.234
 H     3.707   3.626  -5.546
 H     2.656   2.560  -5.774
 O     0.266   3.139  -2.908
 H     0.899   3.701  -2.461
 H    -0.310   3.747  -3.371
 O     3.292  -0.060  -3.450
 H     3.872   0.621  -3.111
 H     2.837  -0.396  -2.677
 O     1.287   1.258  -4.845
 H     0.972   1.827  -4.143
 H     1.968   0.725  -4.434
 O     4.916   4.628  -4.359
 H     5.567   4.258  -3.763
 H     5.418   5.206  -4.934
 O     2.168   4.519  -1.317
 H     1.388   5.017  -1.072
 H     2.746   5.165  -1.724
 O     4.871   1.545  -1.599
 H     4.416   1.807  -0.799
 H     5.515   0.899  -1.309
 O    -0.001   6.239  -0.625
 H     0.526  -5.836  -0.287
 H    -0.456   5.896   0.144
 O     3.192  -3.364  -0.557
 H     2.732  -3.975   0.018
 H     3.739  -3.921  -1.111
 O    -0.175  -3.399   3.200
 H     0.599  -2.928   3.509
 H    -0.627  -2.773   2.635
 O     2.905  -6.390   2.872
 H     2.280   5.818   3.291
 H     3.240  -5.850   3.588
 O     1.256  -4.766   1.020
 H     0.807  -4.346   1.754
 H     1.698  -5.520   1.409
 O     4.665  -1.940   1.405
 H     4.493  -1.001   1.479
 H     4.009  -2.256   0.785
 O     1.769  -1.636   4.505
 H     1.173  -1.100   5.028
 H     2.397  -1.984   5.139
 O     4.383  -4.986   5.092
 H     4.709  -4.470   4.354
 H     5.076  -5.624   5.263
 O     0.405   6.235  -6.326
 H     0.697   5.617   5.805
 H     0.022  -5.839   5.981
 O     2.989  -3.172  -5.843
 H     3.579  -3.823  -6.220
 H     3.553  -2.623  -5.298
 O    -0.217  -3.051  -3.435
 H     0.367  -3.569  -3.988
 H    -0.707  -3.700  -2.929
 O     3.469  -6.184  -2.912
 H     3.786   5.910  -3.475
 H     2.713  -5.826  -3.378
 O     1.602  -5.002  -4.402
 H     1.220  -5.544  -5.093
 H     1.989  -4.259  -4.865
 O     5.313  -1.890  -4.332
 H     4.858  -1.470  -3.603
 H     5.951  -2.470  -3.916
 O     1.629  -1.489  -1.807
 H     2.235  -2.046  -1.318
 H     1.212  -2.080  -2.434
 O     5.240  -4.789  -1.441
 H     4.880  -5.499  -1.971
 H     5.781  -5.229  -0.785
 O    -6.135  -0.394  -0.445
 H     6.240  -1.225  -0.234
 H    -6.076   0.066   0.392
 O    -3.214   3.138   0.429
 H    -3.605   3.720  -0.222
 H    -2.654   2.551  -0.079
 O    -6.112   3.047   3.552
 H     6.087   3.561   3.012
 H     6.119   2.570   4.156
 O    -3.247   0.189   3.350
 H    -3.741   0.857   2.874
 H    -2.654   0.685   3.914
 O    -5.240   1.549   1.439
 H    -4.702   2.251   1.073
 H    -5.604   1.920   2.243
 O    -1.628   5.205   1.399
 H    -2.118   4.452   1.066
 H    -2.300   5.806   1.720
 O    -4.927   5.008   5.039
 H    -5.167   4.291   4.451
 H    -4.464   5.631   4.480
 O    -1.680   1.809   4.835
 H    -1.127   2.425   4.354
 H    -2.142   2.350   5.475
 O     6.090   0.083  -6.129
 H     5.521  -0.549  -5.689
 H    -6.043  -0.453   6.242
 O    -3.129   3.310  -6.305
 H    -3.615   3.989   6.027
 H    -3.772   2.919  -5.713
 O    -6.351   3.486  -2.649
 H     5.837   2.893  -2.212
 H    -5.897   2.935  -3.287
 O    -3.037   0.688  -3.602
 H    -2.559   0.296  -4.333
 H    -3.562  -0.029  -3.247
 O    -5.082   1.775  -4.686
 H    -5.587   1.123  -5.171
 H    -4.301   1.305  -4.392
 O    -1.375   4.797  -4.513
 H    -0.770   5.180  -5.148
 H    -1.881   4.160  -5.018
 O    -4.510   4.767  -1.314
 H    -5.179   4.502  -1.945
 H    -3.858   5.233  -1.838
 O    -1.835   1.460  -1.392
 H    -1.083   1.895  -1.795
 H    -2.308   1.068  -2.127
 O    -6.262  -6.354   0.357
 H     6.033   5.694   0.666
 H    -5.658   6.080  -0.289
 O    -3.326  -2.900  -0.155
 H    -2.791  -2.458   0.504
 H    -3.580  -2.206  -0.763
 O     5.964  -3.027   3.462
 H     5.356  -2.548   2.900
 H    -6.269  -3.502   2.854
 O    -3.266  -6.323   3.214
 H    -3.849  -5.609   2.958
 H    -2.551  -5.893   3.683
 O    -4.874  -4.537   1.886
 H    -5.375  -5.152   1.351
 H    -4.427  -3.976   1.252
 O    -1.863  -1.657   1.828
 H    -1.550  -1.064   1.145
 H    -2.483  -1.132   2.335
 O    -5.038  -1.315   4.761
 H    -4.495  -0.887   4.099
 H    -5.740  -1.733   4.262
 O    -1.713  -4.799   5.120
 H    -1.222  -4.189   4.569
 H    -2.368  -4.254   5.557
 O     5.976   6.101  -6.249
 H    -6.221   5.558   6.043
 H    -6.331  -5.899  -6.066
 O    -3.337  -2.885   6.266
 H    -2.586  -2.350  -6.279
 H    -3.959  -2.262   5.889
 O    -5.712  -3.539  -3.301
 H    -6.271  -4.097  -2.761
 H    -5.391  -4.119  -3.992
 O    -3.292   6.400  -3.219
 H    -2.663   5.864  -3.702
 H    -2.751  -5.790  -2.717
 O    -4.785  -4.867  -5.406
 H    -4.305  -5.586  -4.994
 H    -4.121  -4.388  -5.903
 O    -1.457  -1.690  -5.363
 H    -0.800  -1.482  -6.027
 H    -1.000  -2.257  -4.742
 O    -4.134  -1.199  -2.219
 H    -4.651  -0.786  -1.528
 H    -4.683  -1.918  -2.531
 O    -1.865  -4.601  -2.028
 H    -1.203  -4.976  -1.448
 H    -2.457  -4.129  -1.443
     192
member     3 dist   0.279 frame    30  step 30
 O    -0.183   0.412  -0.221
 H     0.369  -0.185  -0.725
 H    -0.573   0.990  -0.877
 O     3.369   3.274  -0.098
 H     2.834   2.641   0.381
 H     2.762   3.679  -0.719
 O    -0.030   2.980   3.079
 H     0.643   2.809   2.421
 H    -0.576   3.665   2.692
 O     3.201  -0.103   3.313
 H     3.883   0.229   3.896
 H     2.531  -0.451   3.901
 O     1.935   1.584   1.488
 H     1.565   1.064   0.775
 H     2.462   0.962   1.990
 O     4.861   4.787   1.437
 H     4.232   4.232   0.975
 H     4.320   5.417   1.913
 O     1.547   4.908   4.616
 H     1.081   4.232   4.124
 H     2.071   4.423   5.253
 O     4.521   1.389   5.270
 H     4.067   2.136   5.660
 H     5.101   1.073   5.962
 O    -0.229   0.067  -5.948
 H     0.478   0.523  -5.491
 H    -0.377   0.586   6.061
 O     3.018   3.442  -6.292
 H     2.555   2.784  -5.773
 H     3.805   3.639  -5.783
 O     0.009   2.972  -3.253
 H     0.404   3.476  -2.541
 H    -0.478   3.620  -3.764
 O     3.508  -0.088  -2.943
 H     3.825   0.547  -2.301
 H     2.862  -0.609  -2.467
 O     1.922   1.384  -4.683
 H     1.382   1.876  -4.064
 H     2.634   1.029  -4.150
 O     5.514   4.128  -5.206
 H     5.991   4.162  -4.377
 H     5.614   5.006  -5.575
 O     1.725   4.676  -1.593
 H     1.448   5.338  -0.960
 H     2.191   5.170  -2.268
 O     4.934   1.548  -1.364
 H     4.910   2.320  -0.797
 H     5.614   0.992  -0.984
 O     0.770  -6.268   0.173
 H     1.127  -5.403   0.378
 H     0.137   6.362   0.871
 O     3.638  -2.767  -0.163
 H     3.134  -3.368   0.384
 H     4.132  -3.336  -0.754
 O    -0.167  -3.015   3.014
 H     0.016  -2.320   3.647
 H    -0.543  -2.560   2.260
 O     3.173  -6.224   2.972
 H     2.528   6.076   3.473
 H     3.725  -5.812   3.636
 O     1.860  -4.080   1.577
 H     1.301  -3.534   2.130
 H     2.284  -4.684   2.185
 O     5.119  -1.685   1.684
 H     4.589  -1.035   2.145
 H     4.519  -2.079   1.050
 O     1.276  -1.524   4.984
 H     0.988  -1.037   5.756
 H     2.023  -2.038   5.290
 O     4.565  -4.902   4.702
 H     5.178  -4.241   4.380
 H     5.101  -5.488   5.236
 O    -0.271  -6.273   6.309
 H     0.219   5.997   5.681
 H    -0.691  -5.597   5.777
 O     3.102  -3.256   6.358
 H     3.673  -3.797   5.812
 H     3.690  -2.621  -6.035
 O     0.070  -3.385  -3.346
 H     0.779  -3.904  -3.726
 H    -0.288  -3.940  -2.653
 O     3.278   6.239  -3.344
 H     3.643   5.662  -4.015
 H     2.536  -6.135  -3.773
 O     1.782  -5.015  -4.689
 H     1.065  -5.348  -5.227
 H     2.169  -4.312  -5.212
 O     4.503  -1.614  -5.004
 H     3.988  -1.249  -4.284
 H     5.151  -2.174  -4.576
 O     1.553  -1.496  -1.331
 H     2.290  -1.850  -0.833
 H     1.280  -2.217  -1.899
 O     4.664  -4.717  -1.756
 H     4.159  -5.421  -2.164
 H     5.228  -5.162  -1.123
 O    -6.203  -0.291  -0.024
 H     6.022  -0.889   0.453
 H    -5.772   0.224   0.659
 O    -3.177   3.229   0.579
 H    -3.515   3.703  -0.182
 H    -2.797   2.430   0.214
 O     5.686   2.595   3.168
 H     5.321   3.440   2.909
 H     5.019   2.208   3.735
 O    -3.587   0.017   2.909
 H    -4.195   0.655   2.536
 H    -2.860   0.543   3.240
 O    -5.162   1.673   1.514
 H    -4.615   2.455   1.443
 H    -5.953   1.972   1.962
 O    -1.403   5.045   1.692
 H    -2.040   4.459   1.283
 H    -1.896   5.492   2.380
 O    -4.859   4.613   4.398
 H    -5.173   3.858   3.900
 H    -4.247   5.052   3.807
 O    -1.890   1.544   4.742
 H    -1.273   2.039   4.203
 H    -2.309   2.203   5.295
 O    -5.988   0.289  -5.927
 H     6.383  -0.392  -5.409
 H    -6.036  -0.031   5.971
 O    -3.421   3.432   6.313
 H    -4.005   3.751   5.624
 H    -3.985   2.906  -5.920
 O    -6.033   3.228  -2.388
 H     6.223   2.511  -2.060
 H    -5.415   2.806  -2.985
 O    -3.077  -0.291  -3.334
 H    -2.569  -0.982  -3.761
 H    -3.763  -0.758  -2.857
 O    -4.467   1.899  -4.440
 H    -5.144   1.456  -4.952
 H    -3.787   1.237  -4.319
 O    -1.315   4.756  -4.835
 H    -0.979   5.317  -5.534
 H    -1.994   4.229  -5.255
 O    -4.421   4.824  -1.158
 H    -5.014   4.337  -1.730
 H    -3.973   5.435  -1.743
 O    -2.107   1.594  -1.933
 H    -1.402   2.076  -2.366
 H    -2.257   0.833  -2.494
 O    -6.362  -6.092   0.007
 H     6.035   6.122   0.648
 H    -5.670   6.183  -0.395
 O    -3.210  -3.068   0.346
 H    -2.584  -2.450   0.723
 H    -3.811  -2.521  -0.160
 O     6.124  -3.475   3.307
 H     5.841  -2.989   2.532
 H    -5.857  -3.894   3.042
 O    -3.100   6.295   3.319
 H    -3.554  -5.822   2.826
 H    -2.892  -6.096   4.159
 O    -4.814  -4.835   1.970
 H    -5.336  -5.170   1.242
 H    -4.139  -4.298   1.554
 O    -1.476  -1.302   1.375
 H    -1.091  -0.639   0.802
 H    -2.033  -0.806   1.975
 O    -5.467  -1.446   4.685
 H    -4.789  -1.110   4.098
 H    -5.974  -2.052   4.145
 O    -1.633  -4.594   4.816
 H    -1.201  -4.156   4.084
 H    -2.324  -3.988   5.085
 O     6.318   6.395   6.047
 H    -5.982   5.754   5.543
 H    -5.828  -5.958  -6.216
 O    -3.781  -3.117   5.703
 H    -4.506  -2.545   5.451
 H    -3.328  -2.638   6.397
 O     6.176  -3.211  -3.563
 H     5.706  -3.822  -2.996
 H    -6.015  -3.761  -4.056
 O    -2.990  -6.375  -3.313
 H    -2.429   5.871  -3.857
 H    -2.380  -5.828  -2.818
 O    -4.893  -4.765  -4.940
 H    -4.392  -4.367  -5.653
 H    -4.240  -5.240  -4.425
 O    -1.997  -1.870  -5.084
 H    -1.283  -1.282  -5.332
 H    -1.561  -2.620  -4.679
 O    -4.639  -1.934  -1.556
 H    -5.223  -1.381  -1.036
 H    -5.227  -2.491  -2.066
 O    -1.480  -5.045  -1.366
 H    -0.850  -5.326  -0.703
 H    -2.033  -4.406  -0.916
     192
member     4 dist   0.313 frame     2  step 2
 O    -0.140  -0.467  -0.167
 H     0.535  -0.696  -0.806
 H    -0.741   0.102  -0.647
 O     2.896   3.378  -0.046
 H     2.432   2.819   0.577
 H     2.216   3.687  -0.645
 O    -0.076   2.848   2.994
 H     0.302   2.163   2.442
 H    -0.543   3.418   2.383
 O     3.031  -0.344   2.748
 H     3.117   0.263   3.484
 H     2.506  -1.067   3.094
 O     1.491   1.433   1.356
 H     0.982   0.808   0.841
 H     2.148   0.899   1.802
 O     4.811   4.737   1.675
 H     4.266   4.379   0.974
 H     4.202   5.232   2.223
 O     1.062   4.667   4.610
 H     0.704   3.972   4.057
 H     1.419   4.208   5.371
 O     4.278   1.583   4.556
 H     3.881   2.127   5.236
 H     4.926   1.053   5.020
 O    -0.173  -0.138   6.162
 H     0.368   0.394  -6.054
 H    -0.584   0.495   5.573
 O     2.757   3.255  -6.329
 H     2.213   2.611  -5.877
 H     3.406   3.522  -5.678
 O     0.143   2.763  -3.261
 H     0.374   3.314  -2.513
 H    -0.157   3.379  -3.929
 O     3.569   0.025  -3.393
 H     4.063   0.640  -2.851
 H     3.016  -0.451  -2.774
 O     1.493   1.035  -4.914
 H     1.069   1.671  -4.338
 H     2.006   0.483  -4.324
 O     4.443   4.654  -4.594
 H     5.118   4.195  -4.094
 H     4.922   5.088  -5.300
 O     1.378   4.890  -1.568
 H     0.740   5.322  -1.000
 H     2.108   5.507  -1.621
 O     4.692   1.735  -1.567
 H     4.152   2.285  -1.000
 H     5.319   1.321  -0.974
 O     0.033  -6.234   0.244
 H     0.851  -6.167   0.736
 H    -0.496   5.943   0.742
 O     3.248  -3.052  -0.046
 H     2.646  -3.665   0.375
 H     3.829  -3.607  -0.568
 O     0.333  -4.007   3.124
 H     0.879  -3.409   3.634
 H    -0.294  -3.438   2.678
 O     3.272   6.221   3.492
 H     2.612   5.897   4.104
 H     3.782  -5.948   4.000
 O     2.273  -5.202   1.443
 H     1.497  -4.810   1.844
 H     2.617  -5.793   2.113
 O     4.925  -1.880   1.573
 H     4.288  -1.350   2.052
 H     4.396  -2.417   0.984
 O     1.440  -1.549   4.567
 H     0.610  -1.208   4.900
 H     1.950  -1.749   5.353
 O     4.852  -4.952   4.947
 H     5.367  -4.169   4.752
 H     5.503  -5.644   5.065
 O     0.299  -6.060   6.034
 H     0.554   5.936   5.581
 H    -0.525  -5.802   5.620
 O     3.055  -3.105   6.144
 H     3.568  -3.840   5.808
 H     3.678  -2.594  -6.139
 O     0.180  -2.998  -3.330
 H     0.624  -3.754  -3.714
 H    -0.286  -3.353  -2.573
 O     3.317  -6.233  -2.883
 H     3.648   5.863  -3.441
 H     3.035  -5.553  -3.496
 O     1.830  -4.808  -4.724
 H     1.394  -5.350  -5.381
 H     2.261  -4.118  -5.230
 O     4.951  -1.382  -5.350
 H     4.461  -0.773  -4.798
 H     5.442  -1.924  -4.732
 O     1.893  -1.469  -1.872
 H     2.440  -2.014  -1.307
 H     1.448  -2.091  -2.448
 O     4.826  -4.839  -1.294
 H     4.210  -5.454  -1.692
 H     5.365  -5.380  -0.716
 O     6.212   0.179   0.011
 H     5.709  -0.103   0.774
 H    -5.884   0.718   0.372
 O    -3.163   2.942  -0.070
 H    -3.532   3.519  -0.738
 H    -2.801   2.205  -0.563
 O    -6.372   2.847   3.278
 H     6.023   3.448   2.653
 H     5.692   2.391   3.685
 O    -2.904  -0.246   3.245
 H    -3.430   0.281   2.643
 H    -2.642   0.367   3.933
 O    -4.575   1.510   1.675
 H    -4.127   2.151   1.122
 H    -5.162   2.033   2.220
 O    -1.570   4.663   1.474
 H    -2.073   3.946   1.088
 H    -2.107   4.967   2.205
 O    -5.381   4.898   4.726
 H    -5.778   4.245   4.150
 H    -4.687   5.293   4.198
 O    -1.590   1.741   4.786
 H    -1.141   2.174   4.060
 H    -1.732   2.435   5.429
 O     6.245   0.526   6.070
 H     6.023  -0.200  -6.147
 H    -5.934   0.151   5.446
 O    -3.267   4.126  -5.984
 H    -3.882   4.306   6.105
 H    -3.634   3.363  -5.537
 O     6.226   3.551  -2.949
 H     5.623   2.944  -2.518
 H    -6.110   3.012  -3.590
 O    -3.601   0.328  -3.620
 H    -2.986  -0.285  -4.022
 H    -4.076  -0.197  -2.975
 O    -5.274   2.263  -5.052
 H    -5.636   1.637  -5.679
 H    -4.707   1.737  -4.488
 O    -0.773   4.972  -4.673
 H    -0.472   5.682  -5.239
 H    -1.602   4.691  -5.059
 O    -4.673   5.147  -1.524
 H    -5.138   4.514  -2.071
 H    -4.127   5.639  -2.137
 O    -1.745   1.327  -1.520
 H    -1.194   1.779  -2.159
 H    -2.355   0.814  -2.050
 O     6.359  -6.191   0.673
 H     5.886   5.983   1.221
 H    -5.922   6.065   0.080
 O    -3.170  -3.560   0.218
 H    -2.656  -3.006   0.805
 H    -3.643  -2.943  -0.341
 O    -6.153  -3.367   3.178
 H     6.061  -2.966   2.535
 H    -5.634  -3.992   2.672
 O    -3.236   5.896   3.674
 H    -3.547  -6.313   2.989
 H    -2.726  -6.345   4.260
 O    -4.276  -5.374   1.804
 H    -5.124  -5.615   1.430
 H    -3.940  -4.695   1.219
 O    -1.427  -1.984   1.717
 H    -1.093  -1.527   0.946
 H    -1.774  -1.289   2.277
 O    -5.034  -1.175   4.586
 H    -4.380  -0.732   4.045
 H    -5.350  -1.895   4.040
 O    -1.958  -5.009   5.013
 H    -1.446  -4.903   4.212
 H    -2.258  -4.125   5.225
 O     6.347   6.016  -5.810
 H    -5.977   5.625   6.257
 H    -5.877  -6.090  -5.492
 O    -3.067  -2.876   6.333
 H    -3.438  -2.217   5.747
 H    -2.307  -2.446  -6.074
 O     6.190  -2.719  -3.292
 H     5.833  -3.373  -2.691
 H    -5.897  -3.172  -3.743
 O    -2.737  -5.914  -3.142
 H    -2.144   6.391  -3.708
 H    -2.167  -5.313  -2.663
 O    -4.826  -4.401  -4.543
 H    -4.121  -4.018  -5.066
 H    -4.457  -5.215  -4.203
 O    -1.655  -1.581  -4.766
 H    -1.142  -0.981  -5.307
 H    -1.003  -2.068  -4.262
 O    -4.754  -1.307  -1.583
 H    -5.310  -0.923  -0.904
 H    -5.356  -1.817  -2.126
 O    -1.196  -4.411  -1.427
 H    -0.804  -4.976  -0.761
 H    -2.045  -4.161  -1.061
     192
member     5 dist   0.314 frame    56  step 56
 O    -0.210  -0.150   0.204
 H     0.377  -0.517  -0.456
 H    -0.768   0.457  -0.281
 O     3.561   3.235   0.037
 H     2.922   2.721   0.530
 H     3.044   3.685  -0.630
 O    -0.140   3.455   2.965
 H     0.292   2.836   2.376
 H    -0.670   4.005   2.389
 O     3.051  -0.056   3.101
 H     3.561   0.495   3.694
 H     2.476  -0.560   3.676
 O     1.402   1.586   1.339
 H     0.928   0.979   0.770
 H     2.193   1.109   1.592
 O     5.023   4.370   1.975
 H     4.708   3.994   1.153
 H     4.233   4.691   2.410
 O     1.555   5.002   4.667
 H     0.818   4.563   4.242
 H     1.942   4.331   5.229
 O     4.715   1.630   5.109
 H     4.148   2.065   5.746
 H     5.299   1.087   5.638
 O    -0.110   0.184   6.211
 H     0.337   0.718  -5.932
 H    -0.466   0.819   5.588
 O     2.815   3.719  -6.198
 H     3.517   4.080  -5.657
 H     2.409   3.048  -5.648
 O     0.218   3.099  -2.975
 H     0.794   3.667  -2.463
 H    -0.217   3.689  -3.590
 O     3.346   0.216  -3.042
 H     3.943   0.669  -2.446
 H     2.865  -0.393  -2.482
 O     1.790   1.531  -4.878
 H     1.197   1.845  -4.195
 H     2.307   0.848  -4.451
 O     5.007   4.724  -4.950
 H     5.555   4.086  -4.492
 H     5.617   5.206  -5.509
 O     1.889   4.584  -1.538
 H     1.540   5.316  -1.029
 H     2.430   4.997  -2.212
 O     5.085   1.614  -1.538
 H     4.744   2.239  -0.898
 H     5.620   1.011  -1.024
 O     0.011  -6.309  -0.353
 H     0.443  -5.749   0.292
 H    -0.512   5.883   0.170
 O     3.378  -3.175   0.313
 H     2.614  -3.617   0.682
 H     3.854  -3.864  -0.150
 O     0.481  -3.300   3.217
 H     1.001  -2.684   3.734
 H    -0.228  -2.769   2.854
 O     3.159   6.173   3.031
 H     2.593   5.689   3.632
 H     3.522  -5.918   3.562
 O     1.603  -5.048   1.491
 H     1.100  -4.643   2.198
 H     2.133  -5.717   1.926
 O     4.808  -1.618   1.805
 H     4.103  -1.111   2.207
 H     4.362  -2.228   1.218
 O     1.575  -1.225   4.955
 H     0.909  -0.727   5.427
 H     2.163  -1.548   5.638
 O     4.823  -5.096   4.961
 H     5.402  -4.619   4.367
 H     5.414  -5.529   5.577
 O     0.231  -6.340  -6.288
 H     0.950   6.285   5.904
 H    -0.349  -5.747   6.034
 O     3.470  -2.963   6.171
 H     4.093  -3.453   5.633
 H     4.014  -2.514  -5.981
 O     0.120  -3.249  -3.313
 H     0.548  -3.823  -3.949
 H    -0.298  -3.847  -2.693
 O     3.481  -6.301  -3.150
 H     4.197   6.129  -3.666
 H     2.986  -5.768  -3.772
 O     1.770  -4.743  -4.893
 H     1.189  -5.385  -5.301
 H     2.286  -4.390  -5.618
 O     4.691  -1.282  -4.664
 H     4.165  -0.675  -4.143
 H     4.731  -2.079  -4.135
 O     1.647  -1.541  -1.409
 H     2.088  -2.197  -0.870
 H     1.236  -2.045  -2.112
 O     4.499  -4.936  -1.260
 H     4.135  -5.546  -1.902
 H     5.029  -5.485  -0.682
 O     6.327  -0.679  -0.103
 H     5.780  -1.110   0.554
 H    -6.009   0.004   0.382
 O    -3.564   3.370  -0.284
 H    -4.184   3.733  -0.916
 H    -3.137   2.652  -0.751
 O    -6.128   2.581   3.298
 H     6.065   3.236   2.953
 H     6.152   2.078   3.924
 O    -3.206  -0.234   3.202
 H    -3.744   0.451   2.805
 H    -2.412   0.218   3.486
 O    -4.805   1.113   1.452
 H    -4.460   1.908   1.048
 H    -5.286   1.423   2.220
 O    -1.657   4.795   0.994
 H    -2.172   4.290   0.365
 H    -2.308   5.222   1.550
 O    -4.730   5.318   4.415
 H    -5.231   4.673   3.915
 H    -4.119   5.692   3.781
 O    -1.905   1.995   4.317
 H    -1.312   2.558   3.819
 H    -2.294   2.575   4.972
 O    -6.361  -0.100  -6.184
 H     5.812  -0.543  -5.612
 H    -5.918  -0.809   6.151
 O    -3.200   3.703   6.212
 H    -3.724   4.137   5.538
 H    -3.829   3.175  -6.097
 O    -6.255   3.045  -3.339
 H     6.014   2.484  -2.773
 H    -6.117   2.525  -4.130
 O    -2.991   0.412  -3.577
 H    -2.442  -0.225  -4.034
 H    -3.650  -0.117  -3.127
 O    -4.679   1.806  -5.271
 H    -5.367   1.173  -5.475
 H    -4.105   1.347  -4.659
 O    -1.202   4.668  -4.959
 H    -0.617   5.179  -5.519
 H    -1.799   4.234  -5.568
 O    -5.223   4.887  -1.652
 H    -5.432   4.263  -2.348
 H    -4.604   5.496  -2.054
 O    -1.613   1.550  -1.249
 H    -1.021   2.170  -1.675
 H    -2.119   1.170  -1.967
 O     6.008  -6.327   0.428
 H     5.753   5.846   1.105
 H    -6.173   5.993  -0.122
 O    -3.488  -3.451  -0.112
 H    -2.998  -2.809   0.401
 H    -3.936  -2.932  -0.780
 O     6.186  -3.289   3.317
 H     5.556  -2.734   2.857
 H    -6.005  -3.577   2.637
 O    -3.288  -6.237   2.688
 H    -3.826  -5.712   2.094
 H    -2.746  -5.597   3.149
 O    -5.109  -4.701   1.585
 H    -5.795  -5.209   1.153
 H    -4.749  -4.146   0.893
 O    -2.044  -1.824   1.553
 H    -1.425  -1.173   1.222
 H    -2.641  -1.325   2.112
 O    -4.972  -2.098   5.449
 H    -4.293  -1.663   4.933
 H    -5.609  -2.400   4.801
 O    -1.535  -4.426   4.725
 H    -0.793  -3.990   4.307
 H    -2.114  -3.712   4.992
 O    -6.193  -6.194  -6.083
 H    -5.559   6.234   6.104
 H    -5.658  -5.792  -5.399
 O    -3.167  -3.368  -5.705
 H    -2.758  -2.640  -5.237
 H    -3.799  -2.951  -6.292
 O     5.807  -3.342  -3.261
 H     5.396  -3.858  -2.567
 H    -6.250  -3.873  -3.546
 O    -3.198   6.125  -3.085
 H    -2.731   5.549  -3.690
 H    -2.514  -6.131  -2.695
 O    -4.763  -4.708  -4.144
 H    -4.286  -5.461  -3.793
 H    -4.161  -4.317  -4.778
 O    -1.506  -1.382  -4.733
 H    -1.053  -1.068  -5.516
 H    -0.813  -1.749  -4.185
 O    -4.707  -1.618  -1.940
 H    -5.431  -1.345  -1.376
 H    -5.118  -2.171  -2.605
 O    -1.595  -4.719  -1.798
 H    -1.201  -5.405  -1.260
 H    -2.074  -4.172  -1.177
     192
member     6 dist   0.314 frame    28  step 28
 O    -0.266   0.106  -0.232
 H     0.156  -0.605  -0.715
 H    -0.903   0.469  -0.846
 O     3.458   3.335   0.403
 H     2.777   2.745   0.726
 H     3.072   3.748  -0.369
 O    -0.246   2.674   3.156
 H     0.472   2.470   2.556
 H    -0.688   3.422   2.755
 O     3.223   0.379   2.972
 H     3.692   0.690   3.746
 H     2.847  -0.459   3.240
 O     1.537   1.599   1.181
 H     1.152   0.912   0.637
 H     2.090   1.129   1.805
 O     5.078   4.695   1.813
 H     4.658   4.029   1.267
 H     4.351   5.142   2.247
 O     1.245   4.712   4.182
 H     0.772   3.945   3.861
 H     1.653   4.420   4.997
 O     4.377   1.648   5.037
 H     3.787   2.215   5.532
 H     4.869   1.171   5.706
 O     0.769  -0.367  -6.334
 H     1.017   0.307  -5.700
 H     0.044   0.021   5.975
 O     2.626   3.435   6.292
 H     2.281   2.807  -5.873
 H     3.379   3.831  -6.070
 O    -0.081   2.890  -3.292
 H     0.491   3.409  -2.727
 H    -0.687   3.527  -3.670
 O     3.052  -0.328  -3.176
 H     3.589   0.266  -2.651
 H     2.375  -0.636  -2.574
 O     1.877   1.607  -4.627
 H     1.223   2.053  -4.088
 H     2.324   1.015  -4.023
 O     4.911   5.067  -4.394
 H     5.429   4.279  -4.234
 H     5.386   5.532  -5.083
 O     1.476   4.721  -1.534
 H     1.049   5.218  -0.835
 H     1.869   5.389  -2.097
 O     4.255   1.238  -1.517
 H     3.889   1.929  -0.964
 H     4.762   0.693  -0.915
 O    -0.008  -6.019  -0.272
 H     0.495  -5.311   0.130
 H    -0.668  -6.247   0.384
 O     3.689  -2.936   0.038
 H     2.901  -3.409   0.304
 H     4.038  -3.442  -0.695
 O    -0.029  -3.480   3.330
 H     0.522  -2.972   3.925
 H    -0.632  -2.839   2.954
 O     3.248  -6.298   2.655
 H     2.559   6.176   3.234
 H     3.889  -5.901   3.244
 O     1.655  -4.366   1.228
 H     1.112  -4.171   1.992