     192
member     1 dist   0.828 frame    77  step 77
 O     0.110  -0.744   0.554
 H     0.750  -1.164  -0.019
 H    -0.287  -0.062   0.012
 O     6.198   4.007   2.158
 H     6.211   3.704   3.066
 H     5.643   4.787   2.173
 O    -0.885   2.997   2.831
 H    -1.256   2.374   2.205
 H    -1.363   3.811   2.671
 O     1.946   0.380   2.556
 H     1.943  -0.230   3.293
 H     1.244   0.069   1.983
 O     3.025   3.432  -0.102
 H     2.358   4.051  -0.400
 H     2.678   3.079   0.717
 O     4.023   5.858   1.405
 H     3.220   5.981   1.912
 H     3.772   5.266   0.697
 O     1.751   3.199   2.240
 H     0.826   3.405   2.370
 H     1.852   2.315   2.595
 O     5.700   3.394   4.916
 H     5.596   3.948   5.689
 H     5.835   2.514   5.267
 O     0.284   0.120  -6.277
 H     0.964   0.624  -5.829
 H    -0.187   0.768   5.999
 O     2.936   4.297  -4.634
 H     3.868   4.326  -4.847
 H     2.683   3.386  -4.784
 O    -0.294   2.930  -2.726
 H     0.085   3.574  -2.127
 H    -0.787   3.453  -3.359
 O     3.484  -0.240  -2.568
 H     4.069   0.461  -2.281
 H     3.508  -0.880  -1.857
 O     1.820   1.720  -4.487
 H     1.214   2.074  -3.836
 H     2.337   1.073  -4.008
 O     5.414   4.519  -5.300
 H     5.991   4.101  -4.660
 H     5.730   5.421  -5.354
 O     1.295   5.048  -1.242
 H     0.711   5.541  -0.666
 H     1.580   5.685  -1.897
 O     4.966   1.979  -1.422
 H     4.292   2.521  -1.011
 H     5.303   1.434  -0.710
 O     0.041  -6.046   0.558
 H     0.569  -5.795   1.316
 H    -0.500   6.029   0.871
 O     3.283  -4.367  -0.043
 H     3.194  -4.961   0.703
 H     3.851  -4.835  -0.655
 O    -0.013  -3.160   3.003
 H     0.527  -2.445   3.338
 H    -0.734  -2.724   2.547
 O     1.571   5.824   6.269
 H     2.088   5.313  -5.909
 H     1.827   5.485   5.410
 O     1.620  -5.383   2.709
 H     1.004  -4.672   2.885
 H     2.270  -5.317   3.409
 O     4.290  -2.187   1.355
 H     3.436  -1.844   1.615
 H     4.088  -2.927   0.783
 O     1.525  -1.565   4.313
 H     0.823  -1.371   4.933
 H     2.221  -1.945   4.849
 O     4.912  -4.701   4.487
 H     5.634  -4.216   4.088
 H     5.290  -5.086   5.278
 O    -0.998   5.434   6.386
 H    -0.050   5.475  -6.292
 H    -1.180   6.085   5.708
 O     3.500  -2.758   5.715
 H     4.101  -3.377   5.299
 H     4.062  -2.208   6.261
 O     0.384  -2.718  -3.316
 H     0.756  -3.292  -3.986
 H     0.137  -3.309  -2.605
 O     2.819  -6.378  -3.078
 H     2.853   5.589  -3.549
 H     2.527  -5.744  -3.732
 O     2.035  -4.710  -5.211
 H     1.940  -5.479  -5.773
 H     2.638  -4.138  -5.686
 O     5.489  -1.506  -5.048
 H     5.110  -0.976  -4.347
 H     5.563  -2.383  -4.672
 O     1.922  -1.954  -1.073
 H     2.059  -2.860  -0.794
 H     1.507  -2.028  -1.933
 O     4.993  -5.456  -1.711
 H     4.289  -5.999  -2.066
 H     5.670  -6.081  -1.451
 O     6.322  -0.508  -0.045
 H     5.621  -0.966   0.420
 H    -6.254   0.228   0.525
 O    -3.433   3.079  -0.231
 H    -3.467   3.508  -1.086
 H    -2.764   2.401  -0.329
 O     2.917   4.389   4.287
 H     2.499   3.849   3.616
 H     3.512   3.791   4.740
 O    -3.799   0.640   2.759
 H    -4.542   0.959   2.247
 H    -3.781   1.202   3.534
 O    -5.627   1.873   0.869
 H    -4.751   2.137   0.586
 H    -5.990   2.654   1.286
 O    -2.265   5.023   1.531
 H    -2.618   4.494   0.815
 H    -3.037   5.337   2.001
 O    -3.549   5.322   5.364
 H    -3.359   5.707   4.508
 H    -2.698   5.274   5.800
 O    -1.113   1.923   5.442
 H    -1.020   2.512   4.693
 H    -2.054   1.902   5.615
 O    -6.389   0.391   6.073
 H     5.914  -0.205  -6.167
 H    -5.530  -0.022   5.986
 O    -3.982   2.078   5.232
 H    -4.137   3.020   5.164
 H    -4.156   1.872   6.151
 O    -6.110   3.214  -3.317
 H     6.275   2.639  -2.675
 H    -5.791   2.622  -3.998
 O    -3.291  -0.189  -2.801
 H    -2.596  -0.474  -3.394
 H    -3.890  -0.935  -2.759
 O    -4.734   1.456  -4.971
 H    -5.300   0.844  -5.442
 H    -4.374   0.943  -4.248
 O    -1.989   3.608  -4.654
 H    -1.750   4.289  -5.284
 H    -1.843   2.786  -5.122
 O    -4.004   4.721  -2.325
 H    -4.590   4.069  -2.708
 H    -3.411   4.959  -3.038
 O    -1.317   1.252  -0.970
 H    -0.878   1.740  -1.666
 H    -1.870   0.621  -1.430
 O    -5.935   5.397  -0.642
 H    -6.092   4.761   0.056
 H    -5.363   4.941  -1.259
 O    -2.732  -2.932  -0.815
 H    -2.708  -2.549   0.062
 H    -3.473  -2.504  -1.244
 O    -6.315  -3.026   2.935
 H     5.873  -2.609   2.328
 H    -5.858  -3.679   2.404
 O    -4.508   5.645   2.868
 H    -5.238   5.059   2.667
 H    -4.763  -6.316   2.485
 O    -5.149  -4.794   0.999
 H    -5.931  -5.196   0.620
 H    -4.428  -5.112   0.456
 O    -2.185  -1.774   1.585
 H    -1.630  -1.243   1.014
 H    -2.736  -1.138   2.042
 O    -4.257  -1.500   4.798
 H    -4.236  -0.642   4.375
 H    -4.689  -2.070   4.163
 O    -1.765  -5.109   4.783
 H    -1.367  -4.536   4.128
 H    -2.229  -4.514   5.373
 O    -5.901  -6.059   6.163
 H    -5.264   6.145   5.767
 H    -5.426  -5.644  -5.918
 O    -3.133  -2.801  -5.818
 H    -2.498  -2.198  -5.431
 H    -3.346  -2.412   6.133
 O     6.281  -3.800  -3.184
 H     5.674  -4.330  -2.668
 H    -5.960  -4.437  -3.628
 O    -2.134  -6.306  -3.635
 H    -1.733  -6.297  -4.504
 H    -1.587  -5.719  -3.113
 O    -4.520  -5.030  -4.618
 H    -3.830  -5.546  -4.202
 H    -4.069  -4.257  -4.959
 O    -1.415  -0.644  -4.366
 H    -1.023  -0.068  -5.022
 H    -0.689  -1.186  -4.057
 O    -5.115  -1.832  -1.897
 H    -5.542  -1.440  -1.136
 H    -5.771  -2.426  -2.262
 O    -0.806  -4.790  -1.776
 H    -0.530  -5.099  -0.913
 H    -1.541  -4.203  -1.598
     192
member     2 dist   0.765 frame    79  step 79
 O    -0.256  -0.357   0.106
 H     0.529  -0.507  -0.420
 H    -0.911  -0.052  -0.521
 O     6.181   3.670   2.831
 H     5.940   3.402   3.718
 H     5.347   3.866   2.404
 O    -0.760   1.895   1.524
 H    -1.459   1.541   2.074
 H    -0.509   1.166   0.956
 O     2.719  -0.820   2.214
 H     2.326  -0.610   3.061
 H     2.118  -1.452   1.820
 O     3.412   3.175  -0.236
 H     2.715   3.653  -0.686
 H     2.977   2.767   0.513
 O     4.021   5.141   1.742
 H     3.770   4.755   2.581
 H     3.637   4.559   1.086
 O     2.020   1.751   1.548
 H     1.083   1.689   1.734
 H     2.395   0.962   1.941
 O     5.267   2.544   5.022
 H     5.268   3.044   5.838
 H     5.628   1.691   5.263
 O     0.001   0.259  -5.858
 H     0.560   0.634  -5.178
 H    -0.630   0.951  -6.059
 O     2.735   4.080  -4.938
 H     3.582   4.150  -5.378
 H     2.568   3.138  -4.887
 O    -0.135   2.704  -2.350
 H     0.249   3.498  -1.977
 H    -0.439   2.970  -3.217
 O     3.407   0.172  -2.837
 H     4.088   0.833  -2.709
 H     3.132  -0.064  -1.951
 O     1.592   1.466  -4.205
 H     1.071   1.900  -3.529
 H     2.154   0.859  -3.722
 O     5.269   4.207  -5.663
 H     5.974   3.915  -5.085
 H     5.554   5.066  -5.974
 O     1.517   4.673  -1.435
 H     1.067   5.024  -0.666
 H     1.942   5.433  -1.833
 O     5.547   2.112  -1.559
 H     4.744   2.382  -1.113
 H     5.884   1.390  -1.028
 O     0.192   5.849   0.473
 H     0.889   6.253   0.990
 H    -0.389   5.451   1.121
 O     2.873  -3.889   0.025
 H     2.389  -4.251   0.767
 H     2.894  -4.598  -0.618
 O     0.568  -3.104   3.134
 H     0.897  -2.535   3.831
 H    -0.250  -2.692   2.855
 O     1.604   5.821   6.137
 H     1.057   5.503   5.419
 H     1.923   5.027  -6.234
 O     1.990  -5.392   2.169
 H     1.217  -5.043   2.613
 H     2.568  -5.673   2.878
 O     4.932  -1.930   1.219
 H     4.263  -1.561   1.795
 H     4.445  -2.491   0.614
 O     1.740  -0.635   4.838
 H     1.124  -0.425   5.540
 H     2.262  -1.358   5.185
 O     4.604  -4.611   4.569
 H     5.375  -4.271   4.115
 H     4.942  -5.314   5.124
 O    -1.782  -5.461  -5.529
 H    -0.910  -5.125  -5.736
 H    -2.366  -5.000  -6.132
 O     2.737  -3.255   6.114
 H     3.380  -3.829   5.699
 H     3.251  -2.707  -6.094
 O     0.427  -3.420  -2.973
 H     0.680  -3.917  -3.751
 H    -0.118  -4.024  -2.469
 O     2.531   6.326  -3.376
 H     2.622   5.559  -3.942
 H     1.796  -5.987  -3.748
 O     0.875  -4.772  -5.271
 H     1.119  -5.609  -5.667
 H     1.353  -4.117  -5.780
 O     4.674  -1.409  -5.235
 H     4.392  -1.127  -4.365
 H     5.246  -2.158  -5.071
 O     1.873  -1.635  -1.005
 H     2.292  -2.429  -0.673
 H     1.245  -1.949  -1.655
 O     4.714  -5.400  -2.247
 H     4.029  -5.961  -2.611
 H     5.190  -5.966  -1.639
 O    -6.313   0.141   0.331
 H     5.985  -0.636   0.575
 H    -5.905   0.429   1.148
 O    -3.902   2.654   0.026
 H    -4.346   3.498  -0.062
 H    -3.590   2.454  -0.857
 O     2.957   3.522   3.678
 H     2.444   2.826   3.267
 H     3.589   3.060   4.229
 O    -2.769   0.426   3.288
 H    -3.581   0.755   2.902
 H    -2.679   0.911   4.108
 O    -5.005   1.580   2.179
 H    -4.631   1.845   1.338
 H    -5.665   2.246   2.369
 O    -1.506   4.660   2.221
 H    -1.501   3.918   1.616
 H    -2.433   4.870   2.337
 O    -3.513   5.901   5.044
 H    -3.790   5.597   4.179
 H    -2.899  -6.188   4.863
 O    -0.968   4.351   4.906
 H    -1.797   4.791   5.094
 H    -0.787   4.563   3.990
 O    -6.080   0.389   5.824
 H     6.256  -0.101  -6.297
 H    -5.628  -0.281   5.311
 O    -1.974   1.930   5.722
 H    -2.860   2.161   6.002
 H    -1.621   2.738   5.351
 O    -5.830   3.891  -3.552
 H     6.349   3.322  -3.097
 H    -5.180   3.291  -3.918
 O    -3.702   0.183  -4.283
 H    -2.873  -0.254  -4.480
 H    -4.076  -0.326  -3.563
 O    -4.505   2.225  -5.773
 H    -5.025   1.708  -6.388
 H    -4.187   1.588  -5.133
 O    -0.657   3.260  -4.767
 H     0.045   3.800  -5.131
 H    -1.333   3.256  -5.445
 O    -5.377   5.268  -1.358
 H    -5.556   4.809  -2.179
 H    -4.495   5.623  -1.468
 O    -2.270   0.775  -1.718
 H    -1.799   1.520  -2.090
 H    -2.806   0.445  -2.438
 O     5.905  -6.293   0.459
 H     5.246   5.981   0.912
 H    -6.367   5.868  -0.020
 O    -3.167  -2.880   0.092
 H    -2.572  -2.554   0.767
 H    -3.425  -2.100  -0.398
 O    -6.208  -3.703   3.000
 H     6.067  -3.295   2.311
 H    -5.451  -4.067   2.541
 O    -4.075   5.283   2.421
 H    -4.842   4.711   2.385
 H    -4.234   5.941   1.744
 O    -4.686  -5.047   1.331
 H    -5.413  -5.054   0.709
 H    -3.974  -4.611   0.863
 O    -1.549  -1.909   2.012
 H    -1.130  -1.349   1.359
 H    -1.953  -1.298   2.629
 O    -4.561  -1.426   4.179
 H    -3.750  -1.087   3.799
 H    -4.815  -2.145   3.600
 O    -2.112  -4.579   4.526
 H    -1.203  -4.365   4.318
 H    -2.473  -3.769   4.886
 O    -6.047  -6.241  -6.270
 H    -5.295   6.357   5.972
 H    -5.717  -5.593  -5.648
 O    -3.160  -2.893   6.281
 H    -2.525  -2.509  -5.914
 H    -3.872  -2.254   6.244
 O     6.243  -2.822  -3.340
 H     5.550  -3.367  -2.967
 H    -5.867  -3.441  -3.578
 O    -3.076  -5.882  -2.927
 H    -2.684  -6.037  -3.786
 H    -2.397  -5.422  -2.433
 O    -4.663  -4.397  -4.757
 H    -4.095  -4.855  -4.138
 H    -4.060  -3.980  -5.373
 O    -1.559  -1.590  -4.518
 H    -1.067  -1.054  -5.140
 H    -0.894  -2.118  -4.077
 O    -4.851  -1.254  -1.924
 H    -5.378  -0.856  -1.231
 H    -5.431  -1.903  -2.323
 O    -0.849  -4.981  -1.315
 H    -0.436  -5.688  -0.818
 H    -1.263  -4.431  -0.651
     192
member     3 dist   0.795 frame    80  step 80
 O     0.211  -0.793   0.301
 H     0.559  -1.091  -0.539
 H    -0.263   0.012   0.092
 O    -6.030   3.310   2.676
 H    -6.320   3.034   3.546
 H     5.981   3.659   2.260
 O    -1.740   2.885   2.627
 H    -1.283   2.214   3.133
 H    -2.275   2.393   2.004
 O     1.724  -0.164   2.386
 H     1.157  -0.369   3.130
 H     1.277  -0.547   1.631
 O     3.764   3.357  -0.609
 H     3.050   3.797  -1.069
 H     3.331   2.843   0.072
 O     4.694   5.356   1.095
 H     4.102   5.282   1.844
 H     4.288   4.818   0.415
 O     2.128   2.390   1.503
 H     1.367   2.874   1.823
 H     2.018   1.508   1.858
 O     4.721   2.423   5.288
 H     5.208   3.009   5.868
 H     5.012   1.546   5.534
 O    -0.223   0.084  -5.952
 H     0.509   0.646  -5.695
 H    -0.891   0.691  -6.271
 O     3.769   3.584  -4.212
 H     4.436   2.898  -4.186
 H     3.055   3.206  -4.724
 O    -0.063   2.608  -3.081
 H     0.539   3.084  -2.509
 H    -0.479   3.288  -3.611
 O     3.186   0.224  -3.625
 H     3.859   0.765  -3.211
 H     2.447   0.253  -3.017
 O     1.634   1.733  -5.115
 H     1.161   1.976  -4.319
 H     2.299   1.111  -4.819
 O     6.112   4.220  -6.206
 H     6.118   3.812  -5.340
 H     6.390   5.122  -6.048
 O     1.449   4.707  -1.357
 H     1.321   5.438  -0.753
 H     1.772   5.113  -2.161
 O     5.046   1.453  -2.030
 H     4.484   2.073  -1.565
 H     5.271   0.794  -1.373
 O     0.503  -6.015   0.606
 H     1.022  -5.412   1.139
 H    -0.074   6.348   1.232
 O     3.274  -3.204  -0.341
 H     3.012  -3.776   0.380
 H     3.859  -3.741  -0.875
 O    -0.217  -3.723   3.490
 H    -0.144  -2.789   3.687
 H    -0.772  -3.762   2.711
 O     3.844   5.705   5.418
 H     3.833   5.246   4.578
 H     4.547   5.283   5.913
 O     2.302  -4.422   2.011
 H     1.514  -4.166   2.489
 H     2.976  -4.507   2.686
 O     4.246  -1.510   1.308
 H     3.596  -1.079   1.863
 H     3.729  -2.039   0.701
 O     0.667  -1.355   4.702
 H     0.065  -1.032   5.372
 H     1.476  -1.544   5.178
 O     4.243  -4.609   4.472
 H     5.060  -4.384   4.028
 H     4.435  -5.428   4.929
 O    -0.460  -5.939  -4.912
 H     0.431  -5.894  -5.257
 H    -1.019  -5.757  -5.667
 O     3.110  -2.163   5.795
 H     3.493  -2.929   5.368
 H     3.739  -1.930  -6.322
 O    -0.322  -3.760  -3.270
 H    -0.409  -4.465  -3.913
 H    -0.680  -4.127  -2.462
 O     2.927   6.179  -3.488
 H     3.380   5.353  -3.655
 H     2.855  -6.207  -4.348
 O     2.296  -5.149  -5.823
 H     2.811  -5.706   6.393
 H     2.385  -4.270  -6.190
 O     4.758  -1.591  -4.897
 H     4.016  -1.293  -4.372
 H     5.258  -2.156  -4.307
 O     1.167  -1.759  -2.141
 H     1.805  -2.405  -1.837
 H     0.518  -2.272  -2.623
 O     4.480  -5.005  -1.851
 H     3.873  -5.508  -2.393
 H     5.041  -5.665  -1.443
 O     5.936   0.016   0.151
 H     5.254  -0.491   0.591
 H    -6.255   0.256   0.850
 O    -3.119   2.110   0.128
 H    -3.502   2.708  -0.515
 H    -2.498   1.583  -0.374
 O     3.749   3.865   3.181
 H     3.230   3.270   2.641
 H     4.165   3.299   3.831
 O    -1.154   0.429   3.813
 H    -0.441  -0.165   4.051
 H    -1.435   0.811   4.645
 O    -5.020   0.939   1.923
 H    -4.268   1.166   1.376
 H    -5.451   1.775   2.097
 O    -1.552   5.722   1.921
 H    -1.595   4.807   2.199
 H    -2.443   6.051   2.039
 O    -4.127  -5.809   4.955
 H    -4.175  -6.145   4.061
 H    -3.258  -5.413   5.016
 O    -3.820   4.836  -5.960
 H    -3.966   5.512   6.178
 H    -4.589   4.270  -6.021
 O     6.146  -0.069   5.689
 H     5.907  -0.623  -6.368
 H    -6.089  -0.622   5.149
 O    -2.220   1.798   6.125
 H    -2.991   1.450  -6.228
 H    -2.110   2.678  -6.314
 O     6.128   2.407  -4.226
 H     6.053   1.839  -3.459
 H    -6.013   1.982  -4.775
 O    -3.750  -0.282  -3.270
 H    -3.185  -0.937  -3.680
 H    -4.119  -0.726  -2.507
 O    -4.695   1.149  -5.611
 H    -5.136   0.622  -6.277
 H    -4.514   0.535  -4.900
 O    -1.516   4.436  -4.705
 H    -1.124   5.306  -4.783
 H    -2.388   4.530  -5.088
 O    -4.398   3.999  -1.708
 H    -4.706   3.898  -2.608
 H    -3.791   4.738  -1.743
 O    -1.262   0.729  -1.357
 H    -0.793   1.467  -1.747
 H    -1.563   0.213  -2.106
 O     6.362   6.088  -1.075
 H     5.979   5.872  -0.225
 H    -5.774   5.413  -1.217
 O    -3.505  -3.360   0.146
 H    -3.155  -2.753   0.799
 H    -4.066  -2.818  -0.409
 O     6.061  -3.252   2.811
 H     5.436  -2.801   2.244
 H    -6.284  -3.861   2.229
 O    -4.194   5.989   2.421
 H    -4.488   5.090   2.273
 H    -4.732  -6.283   1.831
 O    -5.391  -5.000   0.980
 H    -5.490  -5.271   0.068
 H    -4.782  -4.262   0.947
 O    -1.818  -1.721   1.705
 H    -1.129  -1.526   1.071
 H    -1.862  -0.941   2.259
 O    -4.978  -1.409   3.992
 H    -5.188  -0.518   3.714
 H    -5.679  -1.947   3.624
 O    -1.606  -4.761   5.555
 H    -1.050  -4.511   4.817
 H    -2.022  -3.944   5.830
 O    -5.846  -5.768  -5.622
 H    -5.497  -5.786   6.287
 H    -5.124  -5.437  -5.088
 O    -3.058  -2.581   6.106
 H    -2.857  -2.049  -5.924
 H    -3.880  -2.220   5.773
 O     6.238  -3.183  -2.997
 H     5.571  -3.855  -2.858
 H    -5.740  -3.670  -3.061
 O    -3.033   6.200  -2.425
 H    -2.444   5.740  -3.022
 H    -2.455  -6.059  -1.887
 O    -4.095  -4.672  -3.860
 H    -3.882  -5.516  -3.461
 H    -3.276  -4.178  -3.829
 O    -1.647  -1.550  -4.301
 H    -0.994  -1.040  -4.780
 H    -1.274  -2.429  -4.247
 O    -5.139  -1.582  -1.202
 H    -5.818  -1.170  -0.667
 H    -5.570  -1.764  -2.037
 O    -1.260  -4.456  -0.958
 H    -0.796  -4.844  -0.216
 H    -2.084  -4.141  -0.588
     192
member     4 dist   0.543 frame    81  step 81
 O    -0.486  -0.958  -0.329
 H     0.077  -1.472  -0.907
 H    -0.855  -0.279  -0.893
 O    -5.571   3.916   2.809
 H    -5.606   3.788   3.757
 H    -6.352   4.431   2.607
 O    -1.416   3.111   0.636
 H    -1.476   2.421   1.296
 H    -1.425   2.645  -0.200
 O     1.548   0.381   0.870
 H     1.393   0.572   1.795
 H     0.808  -0.168   0.610
 O     3.633   3.966  -0.170
 H     3.168   4.147  -0.987
 H     3.014   3.451   0.348
 O     4.000   4.931   2.282
 H     3.571   4.364   2.923
 H     3.889   4.475   1.447
 O     1.145   3.016   0.555
 H     0.229   3.212   0.358
 H     1.193   2.060   0.546
 O     3.674   1.191   5.675
 H     3.095   0.518   6.032
 H     4.515   1.037   6.105
 O    -0.348   0.082  -6.034
 H     0.220   0.847  -5.948
 H    -0.874   0.260   5.986
 O     3.626   3.850  -5.046
 H     4.357   3.462  -4.564
 H     3.005   3.131  -5.160
 O     0.535   3.403  -2.877
 H     1.225   4.064  -2.809
 H    -0.278   3.907  -2.903
 O     2.427  -0.088  -3.362
 H     2.901   0.364  -2.664
 H     1.815  -0.663  -2.901
 O     1.462   1.980  -5.001
 H     1.119   2.512  -4.283
 H     1.746   1.167  -4.584
 O    -5.690   3.961   5.564
 H    -6.379   3.609   6.128
 H    -5.601   4.874   5.837
 O     2.420   5.378  -2.180
 H     2.017   5.944  -1.522
 H     2.933   5.973  -2.727
 O     3.826   1.185  -1.646
 H     3.101   1.688  -1.275
 H     4.170   0.679  -0.909
 O     1.537  -6.059   0.070
 H     1.928  -5.563   0.790
 H     0.905   6.161   0.495
 O     3.398  -2.853  -0.266
 H     3.234  -3.433   0.478
 H     3.983  -3.352  -0.835
 O     0.426  -3.875   2.002
 H    -0.374  -3.350   1.963
 H     0.300  -4.554   1.339
 O     2.103   5.230   5.764
 H     2.225   4.647   5.015
 H     2.389   4.714  -6.282
 O     3.357  -4.019   2.214
 H     2.404  -3.958   2.272
 H     3.599  -4.647   2.894
 O     4.945  -0.522   0.394
 H     4.604  -0.212   1.232
 H     4.464  -1.333   0.225
 O     1.704  -1.125   5.516
 H     0.954  -0.890   6.062
 H     1.988  -1.975   5.853
 O     3.703  -5.846   4.146
 H     4.058   6.279   3.568
 H     2.953  -6.263   4.571
 O    -0.733  -5.676  -5.127
 H     0.159  -5.393  -4.926
 H    -0.856  -5.450  -6.049
 O     3.342  -3.333   6.005
 H     4.043  -3.825   5.578
 H     3.796  -2.744  -6.191
 O    -2.102  -4.076  -3.352
 H    -1.648  -4.595  -4.016
 H    -2.127  -4.642  -2.581
 O     4.138  -6.114  -4.073
 H     4.286   5.795  -4.390
 H     3.474  -5.757  -4.663
 O     1.994  -5.356  -5.509
 H     2.036  -6.016  -6.201
 H     2.488  -4.613  -5.855
 O     4.311  -1.380  -5.222
 H     3.692  -0.894  -4.677
 H     4.773  -1.952  -4.609
 O     1.258  -2.465  -1.859
 H     1.903  -2.498  -1.152
 H     1.170  -3.373  -2.147
 O     4.808  -4.548  -1.687
 H     4.444  -5.025  -2.432
 H     4.860  -5.199  -0.987
 O    -5.236  -0.472   0.742
 H    -6.192  -0.454   0.778
 H    -4.992   0.392   0.408
 O    -4.703   1.772  -0.551
 H    -4.717   2.729  -0.558
 H    -3.947   1.539  -1.090
 O     2.600   2.813   3.580
 H     1.777   2.363   3.391
 H     3.051   2.238   4.198
 O     0.588   0.724   3.456
 H     1.081   0.204   4.091
 H    -0.234   0.931   3.900
 O    -4.238   0.962   2.843
 H    -4.443   0.354   2.134
 H    -4.618   1.795   2.563
 O    -0.804   5.618   1.322
 H    -1.042   4.704   1.167
 H    -1.090   5.792   2.219
 O    -2.696   5.555   5.122
 H    -3.016   5.761   4.244
 H    -2.173   6.317   5.371
 O    -2.873   3.213  -6.207
 H    -2.978   4.018   6.088
 H    -3.755   3.009  -5.894
 O     5.946   0.826  -5.847
 H     5.419   0.062  -5.612
 H    -6.351   0.544   6.189
 O    -2.016   1.116   4.652
 H    -2.739   0.807   4.106
 H    -2.391   1.833   5.163
 O     5.630   3.136  -2.953
 H     5.280   2.334  -2.566
 H     6.395   2.849  -3.452
 O    -3.690   0.581  -2.931
 H    -3.040   0.271  -3.562
 H    -4.258  -0.174  -2.781
 O    -4.990   2.364  -4.434
 H    -5.545   1.857  -5.027
 H    -4.504   1.706  -3.938
 O    -2.284   4.339  -3.667
 H    -1.628   4.937  -4.027
 H    -2.606   3.852  -4.425
 O    -5.607   4.384  -1.202
 H    -6.301   4.063  -1.777
 H    -5.031   4.886  -1.778
 O    -1.463   1.547  -1.551
 H    -0.650   1.866  -1.943
 H    -2.144   1.795  -2.176
 O     5.536  -6.380   0.156
 H     4.727   5.908   0.175
 H     6.234   5.767   0.196
 O    -3.656  -3.481   0.515
 H    -3.284  -2.856   1.137
 H    -3.914  -2.947  -0.236
 O    -5.104  -3.530   4.736
 H    -4.970  -4.420   5.061
 H    -5.218  -3.634   3.791
 O    -3.635   5.821   2.542
 H    -4.068   4.974   2.651
 H    -4.353  -6.346   2.499
 O    -5.737  -4.707   2.075
 H     6.367  -5.117   1.563
 H    -5.193  -4.260   1.426
 O    -1.613  -1.826   2.039
 H    -1.315  -1.388   1.242
 H    -1.386  -1.219   2.744
 O    -5.541  -0.721   5.152
 H    -5.149  -0.414   4.335
 H    -5.527  -1.675   5.081
 O    -0.651  -4.624   5.348
 H     0.172  -4.400   4.914
 H    -1.154  -3.809   5.345
 O    -4.914  -5.937   6.068
 H    -4.191   6.260   5.894
 H    -4.730  -5.588  -5.859
 O    -2.087  -2.276   5.504
 H    -2.465  -1.734   6.196
 H    -2.838  -2.713   5.103
 O     5.966  -3.143  -3.719
 H     5.787  -3.741  -2.993
 H    -6.166  -3.591  -4.239
 O    -3.948   6.136  -2.268
 H    -3.464   5.470  -2.755
 H    -3.345  -6.384  -1.579
 O    -4.641  -4.818  -4.255
 H    -4.653  -5.355  -3.463
 H    -3.942  -4.182  -4.104
 O    -2.477  -1.098  -4.660
 H    -1.595  -0.755  -4.803
 H    -2.344  -2.025  -4.462
 O    -5.149  -1.808  -1.800
 H    -5.274  -1.205  -1.067
 H    -6.017  -1.887  -2.195
 O    -1.935  -5.457  -0.677
 H    -1.758  -6.084   0.025
 H    -2.423  -4.752  -0.252
     192
member     5 dist   0.516 frame    82  step 82
 O     0.250   0.420   0.876
 H    -0.019  -0.147   0.154
 H     0.026   1.304   0.583
 O    -4.709   4.227   2.471
 H    -5.218   4.247   3.281
 H    -5.220   3.674   1.880
 O    -2.473   2.546   0.447
 H    -3.225   2.994   0.059
 H    -1.788   2.606  -0.220
 O     2.933   0.036   2.172
 H     2.887  -0.183   3.103
 H     2.162   0.582   2.017
 O     3.451   2.711  -0.165
 H     3.267   3.183  -0.977
 H     2.591   2.577   0.234
 O    -6.316   2.134   0.496
 H     5.592   2.454   0.360
 H    -5.873   2.296  -0.337
 O     1.522   3.652   1.574
 H     1.476   4.561   1.277
 H     1.080   3.654   2.423
 O     4.973   1.157   4.872
 H     4.086   0.959   5.174
 H     5.438   0.322   4.930
 O     0.627   0.261   6.310
 H     0.915   0.963  -5.907
 H    -0.045   0.665   5.761
 O     3.681   4.000  -4.285
 H     4.401   3.482  -3.925
 H     2.994   3.359  -4.470
 O    -0.082   3.764  -3.675
 H     0.597   4.137  -3.114
 H    -0.299   4.465  -4.289
 O     2.230   0.055  -2.975
 H     2.878   0.382  -2.351
 H     1.472  -0.172  -2.438
 O     1.702   2.085  -4.789
 H     1.024   2.606  -4.358
 H     2.021   1.494  -4.108
 O    -6.136   3.831   4.669
 H    -6.338   2.897   4.609
 H     5.824   4.245   4.865
 O     1.705   4.577  -1.804
 H     1.354   5.087  -1.074
 H     2.090   5.230  -2.389
 O     4.384   0.378  -1.313
 H     4.109   0.850  -0.527
 H     4.705  -0.463  -0.988
 O     0.089   5.730   0.392
 H     0.538  -6.331   0.802
 H    -0.642   5.538   0.980
 O     2.135  -3.478  -0.249
 H     1.942  -3.903   0.587
 H     2.607  -4.141  -0.752
 O    -0.744  -4.943   3.156
 H    -1.154  -4.146   2.821
 H    -1.477  -5.485   3.450
 O     4.169   5.323   5.861
 H     3.846   5.088   4.992
 H     4.033   4.536   6.389
 O     1.814  -5.040   1.986
 H     1.093  -4.795   2.565
 H     2.432  -5.499   2.554
 O     4.533  -1.752   0.653
 H     3.834  -1.280   1.106
 H     4.087  -2.475   0.211
 O     2.520  -0.492   4.783
 H     1.777  -0.254   5.337
 H     2.909  -1.252   5.216
 O     4.333   6.109   2.866
 H     4.370   5.159   2.970
 H     5.241   6.397   2.961
 O     0.366  -3.348  -5.860
 H     0.817  -4.185  -5.971
 H     0.725  -2.789   6.250
 O     3.549  -2.560   6.056
 H     4.402  -2.804   5.698
 H     3.740  -2.253  -5.857
 O    -1.031  -3.551  -3.390
 H    -0.869  -3.855  -4.283
 H    -0.625  -4.216  -2.833
 O     2.557  -6.375  -3.680
 H     2.872   5.600  -4.048
 H     2.604  -5.754  -4.406
 O     2.773  -5.284  -6.127
 H     3.548  -5.820  -6.294
 H     3.018  -4.408   6.377
 O     4.406  -1.290  -4.528
 H     3.815  -0.912  -3.878
 H     4.964  -1.886  -4.027
 O     0.349  -1.312  -1.667
 H     0.916  -1.977  -1.277
 H    -0.027  -1.739  -2.437
 O     3.893  -4.997  -1.850
 H     3.466  -5.648  -2.408
 H     4.607  -5.474  -1.427
 O    -6.159  -0.295   2.067
 H     5.949  -0.941   1.926
 H     6.385   0.453   1.528
 O    -4.449   3.081  -1.192
 H    -4.905   3.716  -1.745
 H    -3.980   2.519  -1.809
 O     3.967   3.415   3.386
 H     3.101   3.217   3.030
 H     4.358   2.558   3.555
 O     0.431   3.428   3.881
 H    -0.260   3.953   3.477
 H     0.006   2.599   4.099
 O    -3.088   0.710   2.664
 H    -2.819   1.223   1.902
 H    -4.003   0.489   2.494
 O    -1.686   4.540   2.035
 H    -1.971   3.752   1.573
 H    -2.338   4.663   2.725
 O    -5.455   5.110  -5.458
 H    -5.595   4.674  -6.298
 H    -4.746   5.731  -5.625
 O    -2.909   3.331  -5.974
 H    -3.766   3.751  -6.047
 H    -3.016   2.689  -5.272
 O    -6.121   0.283  -5.008
 H     6.218  -0.491  -4.683
 H    -6.247   0.256  -5.957
 O    -1.492   1.620   4.835
 H    -1.991   1.124   4.185
 H    -2.100   2.295   5.139
 O     5.739   2.444  -3.351
 H     5.727   1.997  -2.505
 H     5.925   1.752  -3.986
 O    -2.190  -0.332  -3.087
 H    -1.733  -0.580  -3.891
 H    -2.531  -1.157  -2.740
 O    -3.724   1.342  -4.355
 H    -4.527   0.954  -4.703
 H    -3.364   0.670  -3.776
 O    -1.625   5.455  -5.137
 H    -2.297   5.926  -5.630
 H    -1.826   4.530  -5.282
 O    -5.583   5.005  -2.739
 H    -5.813   4.539  -3.543
 H    -4.816   5.527  -2.976
 O    -1.390   2.139  -1.909
 H    -1.049   2.727  -2.583
 H    -1.476   1.293  -2.348
 O     5.949  -6.279  -0.661
 H     5.553   5.849  -0.106
 H    -6.382   6.029  -1.335
 O    -3.504  -3.914  -0.050
 H    -3.138  -3.220   0.498
 H    -3.927  -3.451  -0.773
 O     5.800  -3.360   4.716
 H     5.926  -4.028   5.391
 H     6.328  -3.663   3.978
 O    -4.261  -5.864   3.135
 H    -4.363   6.074   2.731
 H    -4.780  -5.278   2.585
 O    -5.850  -4.211   1.703
 H     6.292  -4.542   1.092
 H    -5.182  -3.814   1.145
 O    -2.333  -2.050   1.832
 H    -1.801  -1.413   1.355
 H    -2.836  -1.524   2.454
 O    -5.668  -0.906   4.987
 H    -5.582  -0.590   4.088
 H    -6.142  -1.735   4.905
 O    -3.592  -5.952   5.909
 H    -3.736  -6.108   4.976
 H    -3.790  -5.024   6.030
 O     6.144  -4.948  -5.851
 H     6.061  -5.899  -5.919
 H    -5.911  -4.813  -5.266
 O    -3.611  -2.536  -6.206
 H    -2.847  -1.996  -6.004
 H    -4.103  -2.026   5.951
 O     5.944  -3.014  -3.044
 H     5.281  -3.618  -2.711
 H    -6.322  -3.545  -3.635
 O    -3.018  -6.244  -3.080
 H    -2.490   5.898  -3.534
 H    -2.452  -5.925  -2.378
 O    -4.660  -4.200  -4.269
 H    -4.005  -4.651  -3.736
 H    -4.150  -3.630  -4.845
 O    -1.203  -1.203  -5.428
 H    -0.591  -0.599  -5.850
 H    -0.700  -2.008  -5.306
 O    -4.862  -2.019  -1.649
 H    -5.086  -1.390  -0.963
 H    -5.705  -2.283  -2.016
 O    -1.328  -5.350  -1.250
 H    -1.030  -6.015  -0.629
 H    -1.833  -4.734  -0.718
     192
member     6 dist   0.354 frame    83  step 83
 O     1.897   0.446  -0.203
 H     2.060  -0.411  -0.598
 H     0.961   0.596  -0.335
 O    -3.768   3.385   3.034
 H    -3.242   3.000   2.333
 H    -4.648   3.453   2.663
 O    -1.165   4.481  -0.642
 H    -1.237   3.660  -0.156
 H    -0.240   4.538  -0.882
 O     4.004  -0.159   1.452
 H     3.883  -0.185   2.402
 H     3.187   0.209   1.117
 O     3.807   2.590  -0.605
 H     3.407   3.440  -0.788
 H     3.067   1.991  -0.509
 O    -6.302   3.570   1.302
 H     5.963   3.424   2.082
 H     6.104   3.011   0.632
 O     2.697   4.044   2.715
 H     2.214   4.540   2.054
 H     2.027   3.534   3.170
 O     4.282   0.566   4.434
 H     3.397   0.231   4.579
 H     4.799  -0.209   4.214
 O    -1.060   0.212   5.270
 H    -0.799   0.123   6.187
 H    -1.774   0.848   5.285
 O     2.164   3.678  -5.168
 H     2.926   3.165  -5.436
 H     1.469   3.031  -5.048
 O     0.208   2.874  -3.019
 H     0.936   3.162  -2.469
 H    -0.279   3.676  -3.211
 O     2.041   0.102  -3.676
 H     2.872   0.433  -3.335
 H     1.712  -0.475  -2.987
 O     0.478   1.519  -5.391
 H     0.084   2.050  -4.699
 H     1.105   0.957  -4.935
 O    -5.817   3.113   6.049
 H    -6.178   2.892  -5.892
 H     6.220   3.157   5.472
 O     1.621   4.679  -1.351
 H     1.868   4.964  -0.471
 H     2.177   5.195  -1.935
 O     4.539   0.922  -2.516
 H     4.381   1.586  -1.845
 H     4.662   0.109  -2.025
 O     1.316   5.692   1.088
 H     1.745  -6.304   1.381
 H     0.382   5.902   1.096
 O     3.886  -3.578   0.029
 H     3.686  -3.964   0.882
 H     3.962  -4.328  -0.561
 O     0.992  -3.603   3.550
 H     1.621  -3.414   4.246
 H     0.176  -3.202   3.848
 O     1.565   5.479   5.726
 H     0.927   4.896   5.314
 H     1.935   4.963  -6.358
 O     2.890  -5.240   2.390
 H     2.179  -4.674   2.689